                         Program Version 3.0.3 - RELEASE   -
|  1> ! RIJCOSX RI-B2PLYP D3BJ def2-TZVP ECP{def2-TZVP} TIGHTSCF Grid5 FinalGrid6 SlowConv MORead
|  2> %method
|  3>  RunTyp Gradient
|  4>  end
|  5> %maxcore 1000
|  6> %moinp "previous.gbw"
|  7> *xyz 0 1
|  8> C -0.394281 0.276013 -0.426662
|  9> N -1.165380 -0.685592 -1.253010
| 10> H 0.248796 -0.278576 0.260517
| 11> H -1.090820 0.897444 0.140826
| 12> H 0.215705 0.904875 -1.079130
| 13> H -1.783150 -1.324970 -0.698370
| 14> H -0.582260 -1.326300 -1.835140
| 15> H -1.813140 -0.240924 -1.938260
| 16> Pb -2.742690 -4.042960 -2.712530
| 17> Cl -1.550790 -3.203310 -4.832550
| 18> Cl -2.764890 1.149980 -2.941600
| 19> Cl -4.798510 -3.319440 -1.344990
| 20> *
| 21>
| 22>                          ****END OF INPUT****

CARTESIAN COORDINATES (ANGSTROEM)
---------------------------------
  C     -0.394281    0.276013   -0.426662
  N     -1.165380   -0.685592   -1.253010
  H      0.248796   -0.278576    0.260517
  H     -1.090820    0.897444    0.140826
  H      0.215705    0.904875   -1.079130
  H     -1.783150   -1.324970   -0.698370
  H     -0.582260   -1.326300   -1.835140
  H     -1.813140   -0.240924   -1.938260
  Pb    -2.742690   -4.042960   -2.712530
  Cl    -1.550790   -3.203310   -4.832550
  Cl    -2.764890    1.149980   -2.941600
  Cl    -4.798510   -3.319440   -1.344990

 Total Charge           Charge          ....    0
 Multiplicity           Mult            ....    1
 Number of Electrons    NEL             ....   92
 Basis Dimension        Dim             ....  259

ORBITAL ENERGIES
----------------

  NO   OCC          E(Eh)            E(eV)
   0   2.0000    -102.884353     -2799.6256
   1   2.0000    -102.883311     -2799.5972
   2   2.0000    -102.753899     -2796.0757
   3   2.0000     -14.988268      -407.8515
   4   2.0000     -10.714456      -291.5552
   5   2.0000      -9.890193      -269.1258
   6   2.0000      -9.889092      -269.0959
   7   2.0000      -9.759944      -265.5816
   8   2.0000      -7.527256      -204.8270
   9   2.0000      -7.526143      -204.7968
  10   2.0000      -7.525692      -204.7845
  11   2.0000      -7.525082      -204.7679
  12   2.0000      -7.524597      -204.7547
  13   2.0000      -7.523979      -204.7379
  14   2.0000      -7.396755      -201.2759
  15   2.0000      -7.395665      -201.2463
  16   2.0000      -7.395631      -201.2453
  17   2.0000      -5.871672      -159.7763
  18   2.0000      -3.646759       -99.2334
  19   2.0000      -3.642225       -99.1100
  20   2.0000      -3.637281       -98.9754
  21   2.0000      -1.157782       -31.5049
  22   2.0000      -1.037261       -28.2253
  23   2.0000      -1.034155       -28.1408
  24   2.0000      -1.029614       -28.0172
  25   2.0000      -1.029185       -28.0056
  26   2.0000      -1.028959       -27.9994
  27   2.0000      -0.895861       -24.3776
  28   2.0000      -0.891837       -24.2681
  29   2.0000      -0.869226       -23.6528
  30   2.0000      -0.773586       -21.0503
  31   2.0000      -0.688109       -18.7244
  32   2.0000      -0.672110       -18.2890
  33   2.0000      -0.612149       -16.6574
  34   2.0000      -0.599879       -16.3235
  35   2.0000      -0.524038       -14.2598
  36   2.0000      -0.523313       -14.2401
  37   2.0000      -0.419359       -11.4113
  38   2.0000      -0.380274       -10.3478
  39   2.0000      -0.378613       -10.3026
  40   2.0000      -0.368831       -10.0364
  41   2.0000      -0.366730        -9.9792
  42   2.0000      -0.332547        -9.0491
  43   2.0000      -0.267087        -7.2678
  44   2.0000      -0.253915        -6.9094
  45   2.0000      -0.253433        -6.8963
  46   0.0000      -0.116972        -3.1830
  47   0.0000      -0.077510        -2.1092
  48   0.0000       0.003297         0.0897
  49   0.0000       0.008420         0.2291
  50   0.0000       0.061784         1.6812

Dispersion correction            ...

MULLIKEN ATOMIC CHARGES
-----------------------
   0 C :   -0.254553
   1 N :   -0.293647
   2 H :    0.139350
   3 H :    0.178661
   4 H :    0.178322
   5 H :    0.267953
   6 H :    0.269400
   7 H :    0.248413
   8 Pb:    0.822380
   9 Cl:   -0.407375
  10 Cl:   -0.734864
  11 Cl:   -0.414040
Sum of atomic charges:   -0.0000000

LOEWDIN ATOMIC CHARGES
----------------------
   0 C :   -0.287197
   1 N :    0.093023
   2 H :    0.117866
   3 H :    0.136339
   4 H :    0.136069
   5 H :    0.196664
   6 H :    0.195393
   7 H :    0.108157
   8 Pb:    0.298864
   9 Cl:   -0.152043
  10 Cl:   -0.685665
  11 Cl:   -0.157469

  Mayer bond orders larger than 0.1
B(  0-C ,  1-N ) :   0.8765 B(  0-C ,  2-H ) :   0.9466 B(  0-C ,  3-H ) :   0.9456
B(  0-C ,  4-H ) :   0.9460 B(  1-N ,  5-H ) :   0.8779 B(  1-N ,  6-H ) :   0.8783
B(  1-N ,  7-H ) :   0.6608 B(  7-H , 10-Cl) :   0.4141 B(  8-Pb,  9-Cl) :   0.9314
B(  8-Pb, 11-Cl) :   0.9206

MP2 TOTAL ENERGY:    -1669.527557665 Eh
Dispersion correction           -0.009658343
FINAL SINGLE POINT ENERGY     -1669.537216007211

DIPOLE MOMENT
-------------
                                X             Y             Z
Electronic contribution:    -22.96465    -175.12629     -19.77721
Nuclear contribution   :     25.63582     171.83900      22.48566
                        -----------------------------------------
Total Dipole Moment    :      2.67117      -3.28729       2.70846
                        -----------------------------------------
Magnitude (a.u.)       :      5.02764
Magnitude (Debye)      :     12.77925

                             ****ORCA TERMINATED NORMALLY****
TOTAL RUN TIME: 0 days 0 hours 14 minutes 10 seconds 760 msec
