                         Program Version 3.0.3 - RELEASE   -
|  1> ! RIJCOSX RI-B2PLYP D3BJ def2-TZVP ECP{def2-TZVP} TIGHTSCF Grid5 FinalGrid6 MORead
|  2> %method
|  3>  RunTyp Gradient
|  4>  end
|  5> %maxcore 1000
|  6> %moinp "previous.gbw"
|  7> *xyz 0 1
|  8> C 2.891451 3.575826 2.778059
|  9> N 2.089424 2.555032 2.059582
| 10> H 3.558472 3.076137 3.484362
| 11> H 2.218727 4.247132 3.316750
| 12> H 3.479382 4.144646 2.054078
| 13> H 1.492676 1.958835 2.673590
| 14> H 2.651801 1.866309 1.511973
| 15> H 1.418732 2.942131 1.359080
| 16> Pb 0.082087 -0.014270 0.220394
| 17> Cl 2.691089 0.138863 0.207243
| 18> Cl -0.083142 2.571506 -0.135116
| 19> Cl 0.060245 0.337990 2.804763
| 20> Cl -2.538555 -0.149961 0.227971
| 21> Cl 0.107759 -0.349883 -2.361919
| 22> Cl 0.244278 -2.590947 0.584580
| 23> N -1.944119 -2.595072 -1.633806
| 24> C -2.725500 -3.643046 -2.335777
| 25> H -2.519034 -1.905375 -1.102173
| 26> H -1.352579 -2.002501 -2.255638
| 27> H -3.308461 -4.206070 -1.603344
| 28> H -2.038395 -4.314606 -2.855607
| 29> H -3.396098 -3.169682 -3.056568
| 30> H -1.270867 -2.959590 -0.921865
| 31> *
| 32>
| 33>                          ****END OF INPUT****

CARTESIAN COORDINATES (ANGSTROEM)
---------------------------------
  C      2.891451    3.575826    2.778059
  N      2.089424    2.555032    2.059582
  H      3.558472    3.076137    3.484362
  H      2.218727    4.247132    3.316750
  H      3.479382    4.144646    2.054078
  H      1.492676    1.958835    2.673590
  H      2.651801    1.866309    1.511973
  H      1.418732    2.942131    1.359080
  Pb     0.082087   -0.014270    0.220394
  Cl     2.691089    0.138863    0.207243
  Cl    -0.083142    2.571506   -0.135116
  Cl     0.060245    0.337990    2.804763
  Cl    -2.538555   -0.149961    0.227971
  Cl     0.107759   -0.349883   -2.361919
  Cl     0.244278   -2.590947    0.584580
  N     -1.944119   -2.595072   -1.633806
  C     -2.725500   -3.643046   -2.335777
  H     -2.519034   -1.905375   -1.102173
  H     -1.352579   -2.002501   -2.255638
  H     -3.308461   -4.206070   -1.603344
  H     -2.038395   -4.314606   -2.855607
  H     -3.396098   -3.169682   -3.056568
  H     -1.270867   -2.959590   -0.921865

 Total Charge           Charge          ....    0
 Multiplicity           Mult            ....    1
 Number of Electrons    NEL             ....  162
 Basis Dimension        Dim             ....  468

ORBITAL ENERGIES
----------------

  NO   OCC          E(Eh)            E(eV)
   0   2.0000    -102.866403     -2799.1371
   1   2.0000    -102.865905     -2799.1236
   2   2.0000    -102.865608     -2799.1155
   3   2.0000    -102.864966     -2799.0980
   4   2.0000    -102.864381     -2799.0821
   5   2.0000    -102.863932     -2799.0699
   6   2.0000     -14.959994      -407.0821
   7   2.0000     -14.955015      -406.9467
   8   2.0000     -10.708645      -291.3971
   9   2.0000     -10.705928      -291.3231
  10   2.0000      -9.872813      -268.6529
  11   2.0000      -9.872255      -268.6377
  12   2.0000      -9.872033      -268.6317
  13   2.0000      -9.871343      -268.6129
  14   2.0000      -9.870832      -268.5990
  15   2.0000      -9.870158      -268.5806
  16   2.0000      -7.510761      -204.3782
  17   2.0000      -7.510257      -204.3645
  18   2.0000      -7.510008      -204.3577
  19   2.0000      -7.509320      -204.3390
  20   2.0000      -7.508769      -204.3240
  21   2.0000      -7.508151      -204.3072
  22   2.0000      -7.507845      -204.2989
  23   2.0000      -7.507334      -204.2849
  24   2.0000      -7.507249      -204.2826
  25   2.0000      -7.507046      -204.2771
  26   2.0000      -7.506780      -204.2699
  27   2.0000      -7.506553      -204.2637
  28   2.0000      -7.506375      -204.2589
  29   2.0000      -7.505874      -204.2452
  30   2.0000      -7.505867      -204.2450
  31   2.0000      -7.505361      -204.2312
  32   2.0000      -7.505188      -204.2265
  33   2.0000      -7.504707      -204.2135
  34   2.0000      -5.835388      -158.7890
  35   2.0000      -3.608312       -98.1872
  36   2.0000      -3.607588       -98.1675
  37   2.0000      -3.607567       -98.1669
  38   2.0000      -1.136978       -30.9388
  39   2.0000      -1.133408       -30.8416
  40   2.0000      -1.009566       -27.4717
  41   2.0000      -1.008961       -27.4552
  42   2.0000      -0.994544       -27.0629
  43   2.0000      -0.993355       -27.0306
  44   2.0000      -0.993153       -27.0251
  45   2.0000      -0.903601       -24.5882
  46   2.0000      -0.884675       -24.0732
  47   2.0000      -0.881518       -23.9873
  48   2.0000      -0.880221       -23.9520
  49   2.0000      -0.862741       -23.4764
  50   2.0000      -0.861999       -23.4562
  51   2.0000      -0.857066       -23.3220
  52   2.0000      -0.853459       -23.2238
  53   2.0000      -0.664181       -18.0733
  54   2.0000      -0.663604       -18.0576
  55   2.0000      -0.660697       -17.9785
  56   2.0000      -0.660411       -17.9707
  57   2.0000      -0.599101       -16.3024
  58   2.0000      -0.596105       -16.2208
  59   2.0000      -0.573054       -15.5936
  60   2.0000      -0.519296       -14.1308
  61   2.0000      -0.519266       -14.1299
  62   2.0000      -0.516809       -14.0631
  63   2.0000      -0.516717       -14.0606
  64   2.0000      -0.412247       -11.2178
  65   2.0000      -0.411634       -11.2011
  66   2.0000      -0.410708       -11.1759
  67   2.0000      -0.374939       -10.2026
  68   2.0000      -0.369451       -10.0533
  69   2.0000      -0.369061       -10.0427
  70   2.0000      -0.353496        -9.6191
  71   2.0000      -0.352607        -9.5949
  72   2.0000      -0.351692        -9.5700
  73   2.0000      -0.346849        -9.4382
  74   2.0000      -0.345601        -9.4043
  75   2.0000      -0.345065        -9.3897
  76   2.0000      -0.339357        -9.2344
  77   2.0000      -0.338853        -9.2207
  78   2.0000      -0.336907        -9.1677
  79   2.0000      -0.336343        -9.1523
  80   2.0000      -0.331739        -9.0271
  81   0.0000      -0.120970        -3.2918
  82   0.0000       0.038634         1.0513
  83   0.0000       0.041771         1.1367
  84   0.0000       0.083681         2.2771
  85   0.0000       0.088012         2.3949

Dispersion correction            ...

MULLIKEN ATOMIC CHARGES
-----------------------
   0 C :   -0.278376
   1 N :   -0.281513
   2 H :    0.161981
   3 H :    0.162519
   4 H :    0.162921
   5 H :    0.274411
   6 H :    0.273415
   7 H :    0.271848
   8 Pb:    1.027085
   9 Cl:   -0.421312
  10 Cl:   -0.422270
  11 Cl:   -0.419749
  12 Cl:   -0.424014
  13 Cl:   -0.419859
  14 Cl:   -0.420007
  15 N :   -0.280474
  16 C :   -0.278272
  17 H :    0.274277
  18 H :    0.275271
  19 H :    0.164101
  20 H :    0.163540
  21 H :    0.162835
  22 H :    0.271643
Sum of atomic charges:   -0.0000000

LOEWDIN ATOMIC CHARGES
----------------------
   0 C :   -0.289603
   1 N :    0.077990
   2 H :    0.127244
   3 H :    0.127339
   4 H :    0.127481
   5 H :    0.160939
   6 H :    0.160887
   7 H :    0.159505
   8 Pb:   -0.534235
   9 Cl:   -0.131210
  10 Cl:   -0.131162
  11 Cl:   -0.126878
  12 Cl:   -0.140309
  13 Cl:   -0.128011
  14 Cl:   -0.127989
  15 N :    0.081458
  16 C :   -0.288155
  17 H :    0.164318
  18 H :    0.164970
  19 H :    0.128017
  20 H :    0.127834
  21 H :    0.127506
  22 H :    0.162064

  Mayer bond orders larger than 0.1
B(  0-C ,  1-N ) :   0.8933 B(  0-C ,  2-H ) :   0.9524 B(  0-C ,  3-H ) :   0.9520
B(  0-C ,  4-H ) :   0.9518 B(  1-N ,  5-H ) :   0.8094 B(  1-N ,  6-H ) :   0.8080
B(  1-N ,  7-H ) :   0.8072 B(  5-H , 11-Cl) :   0.1570 B(  6-H ,  9-Cl) :   0.1607
B(  7-H , 10-Cl) :   0.1626 B(  8-Pb,  9-Cl) :   0.5903 B(  8-Pb, 10-Cl) :   0.5863
B(  8-Pb, 11-Cl) :   0.5913 B(  8-Pb, 12-Cl) :   0.5876 B(  8-Pb, 13-Cl) :   0.5951
B(  8-Pb, 14-Cl) :   0.5902 B( 12-Cl, 17-H ) :   0.1561 B( 13-Cl, 18-H ) :   0.1507
B( 14-Cl, 22-H ) :   0.1645 B( 15-N , 16-C ) :   0.8929 B( 15-N , 17-H ) :   0.8111
B( 15-N , 18-H ) :   0.8134 B( 15-N , 22-H ) :   0.8072 B( 16-C , 19-H ) :   0.9514
B( 16-C , 20-H ) :   0.9515 B( 16-C , 21-H ) :   0.9520

MP2 TOTAL ENERGY:    -3146.415848562 Eh
Dispersion correction           -0.030522921
FINAL SINGLE POINT ENERGY     -3146.446371483085

DIPOLE MOMENT
-------------
                                X             Y             Z
Electronic contribution:      0.21576      -0.13740       0.01032
Nuclear contribution   :     -0.24453       0.03449      -0.06016
                        -----------------------------------------
Total Dipole Moment    :     -0.02877      -0.10291      -0.04983
                        -----------------------------------------
Magnitude (a.u.)       :      0.11791
Magnitude (Debye)      :      0.29969

                             ****ORCA TERMINATED NORMALLY****
TOTAL RUN TIME: 0 days 0 hours 32 minutes 9 seconds 928 msec
