                         Program Version 3.0.3 - RELEASE   -
|  1> ! RIJCOSX RI-B2PLYP D3BJ def2-TZVP ECP{def2-TZVP} TIGHTSCF Grid5 FinalGrid6 SlowConv MORead
|  2> %method
|  3>  RunTyp Gradient
|  4>  end
|  5> %maxcore 1000
|  6> %moinp "previous.gbw"
|  7> *xyz 0 1
|  8> C -1.096310 0.999642 -0.993783
|  9> N -2.181510 0.226239 -0.438169
| 10> H -1.812840 -0.425878 0.183245
| 11> H -2.814980 -0.172774 -1.128090
| 12> H -2.691880 0.919194 0.227898
| 13> H -0.299464 0.473924 -1.498750
| 14> H -0.754434 1.640310 -0.239817
| 15> H -1.424520 1.709060 -1.740270
| 16> Pb -3.026790 -2.689470 -2.451860
| 17> Cl -1.102050 -4.138870 -2.020700
| 18> Cl -2.477080 -0.446299 -3.240110
| 19> Cl -4.529100 -2.626680 -0.450360
| 20> *
| 21>
| 22>                          ****END OF INPUT****

CARTESIAN COORDINATES (ANGSTROEM)
---------------------------------
  C     -1.096310    0.999642   -0.993783
  N     -2.181510    0.226239   -0.438169
  H     -1.812840   -0.425878    0.183245
  H     -2.814980   -0.172774   -1.128090
  H     -2.691880    0.919194    0.227898
  H     -0.299464    0.473924   -1.498750
  H     -0.754434    1.640310   -0.239817
  H     -1.424520    1.709060   -1.740270
  Pb    -3.026790   -2.689470   -2.451860
  Cl    -1.102050   -4.138870   -2.020700
  Cl    -2.477080   -0.446299   -3.240110
  Cl    -4.529100   -2.626680   -0.450360

 Total Charge           Charge          ....    0
 Multiplicity           Mult            ....    1
 Number of Electrons    NEL             ....   92
 Basis Dimension        Dim             ....  259

ORBITAL ENERGIES
----------------

  NO   OCC          E(Eh)            E(eV)
   0   2.0000    -102.860950     -2798.9888
   1   2.0000    -102.833257     -2798.2352
   2   2.0000    -102.825163     -2798.0149
   3   2.0000     -15.027429      -408.9171
   4   2.0000     -10.718811      -291.6737
   5   2.0000      -9.870719      -268.5959
   6   2.0000      -9.840808      -267.7820
   7   2.0000      -9.833035      -267.5705
   8   2.0000      -7.507346      -204.2853
   9   2.0000      -7.506066      -204.2504
  10   2.0000      -7.505674      -204.2398
  11   2.0000      -7.477745      -203.4798
  12   2.0000      -7.476180      -203.4372
  13   2.0000      -7.475869      -203.4287
  14   2.0000      -7.470109      -203.2720
  15   2.0000      -7.468186      -203.2197
  16   2.0000      -7.468036      -203.2156
  17   2.0000      -5.767726      -156.9478
  18   2.0000      -3.540365       -96.3382
  19   2.0000      -3.538008       -96.2741
  20   2.0000      -3.537206       -96.2523
  21   2.0000      -1.211518       -32.9671
  22   2.0000      -0.953737       -25.9525
  23   2.0000      -0.943278       -25.6679
  24   2.0000      -0.937119       -25.5003
  25   2.0000      -0.930020       -25.3071
  26   2.0000      -0.928273       -25.2596
  27   2.0000      -0.896434       -24.3932
  28   2.0000      -0.885478       -24.0951
  29   2.0000      -0.850514       -23.1437
  30   2.0000      -0.836483       -22.7619
  31   2.0000      -0.751710       -20.4551
  32   2.0000      -0.724149       -19.7051
  33   2.0000      -0.648212       -17.6387
  34   2.0000      -0.556708       -15.1488
  35   2.0000      -0.540306       -14.7025
  36   2.0000      -0.526419       -14.3246
  37   2.0000      -0.391837       -10.6624
  38   2.0000      -0.382835       -10.4175
  39   2.0000      -0.373919       -10.1749
  40   2.0000      -0.353086        -9.6080
  41   2.0000      -0.338797        -9.2191
  42   2.0000      -0.331140        -9.0108
  43   2.0000      -0.324168        -8.8211
  44   2.0000      -0.318962        -8.6794
  45   2.0000      -0.242453        -6.5975
  46   0.0000      -0.023050        -0.6272
  47   0.0000       0.001496         0.0407
  48   0.0000       0.047114         1.2820
  49   0.0000       0.050860         1.3840
  50   0.0000       0.065392         1.7794

Dispersion correction            ...

MULLIKEN ATOMIC CHARGES
-----------------------
   0 C :   -0.309338
   1 N :   -0.260357
   2 H :    0.293850
   3 H :    0.294608
   4 H :    0.310080
   5 H :    0.198668
   6 H :    0.147425
   7 H :    0.184742
   8 Pb:    0.713644
   9 Cl:   -0.506664
  10 Cl:   -0.524986
  11 Cl:   -0.541671
Sum of atomic charges:    0.0000000

LOEWDIN ATOMIC CHARGES
----------------------
   0 C :   -0.331209
   1 N :    0.144852
   2 H :    0.189266
   3 H :    0.165378
   4 H :    0.245251
   5 H :    0.135553
   6 H :    0.112563
   7 H :    0.131824
   8 Pb:   -0.264768
   9 Cl:   -0.171290
  10 Cl:   -0.127147
  11 Cl:   -0.230273

  Mayer bond orders larger than 0.1
B(  0-C ,  1-N ) :   0.8853 B(  0-C ,  5-H ) :   0.9448 B(  0-C ,  6-H ) :   0.9376
B(  0-C ,  7-H ) :   0.9501 B(  1-N ,  2-H ) :   0.8849 B(  1-N ,  3-H ) :   0.7906
B(  1-N ,  4-H ) :   0.8649 B(  3-H , 10-Cl) :   0.1329 B(  8-Pb,  9-Cl) :   0.7857
B(  8-Pb, 10-Cl) :   0.5578 B(  8-Pb, 11-Cl) :   0.6665

MP2 TOTAL ENERGY:    -1669.548298430 Eh
Dispersion correction           -0.012756969
FINAL SINGLE POINT ENERGY     -1669.561055398870

DIPOLE MOMENT
-------------
                                X             Y             Z
Electronic contribution:    -39.97842     -73.86422     -56.59645
Nuclear contribution   :     40.90750      77.84948      58.21348
                        -----------------------------------------
Total Dipole Moment    :      0.92908       3.98526       1.61703
                        -----------------------------------------
Magnitude (a.u.)       :      4.40003
Magnitude (Debye)      :     11.18399

                             ****ORCA TERMINATED NORMALLY****
TOTAL RUN TIME: 0 days 0 hours 13 minutes 5 seconds 18 msec
