                         Program Version 3.0.3 - RELEASE   -
|  1> ! RIJCOSX RI-B2PLYP D3BJ def2-TZVP ECP{def2-TZVP} TIGHTSCF Grid5 FinalGrid6 MORead
|  2> %maxcore 4000
|  3> %moinp "previous.gbw"
|  4> *xyz -1 1
|  5> C 3.321334 3.304660 2.430157
|  6> N 2.356571 2.328752 1.891132
|  7> H 3.929482 2.825089 3.202898
|  8> H 2.779051 4.148026 2.867131
|  9> H 3.970752 3.667461 1.628343
| 10> H 1.712427 1.919960 2.626954
| 11> H 2.798301 1.476145 1.466883
| 12> H 1.726191 2.717573 1.143366
| 13> Pb 0.007794 -0.208190 0.739388
| 14> Cl 2.755167 -0.548961 0.799661
| 15> Cl 0.243251 2.905072 -0.298223
| 16> Cl 0.350388 0.655578 3.500524
| 17> Cl -3.310074 -0.279264 -0.032157
| 18> Cl 0.030921 -1.151231 -2.200648
| 19> Cl -0.574203 -2.753401 1.827181
| 20> N -2.185808 -3.054212 -0.959335
| 21> C -3.018599 -3.892984 -1.852407
| 22> H -2.697680 -2.199715 -0.614166
| 23> H -1.345672 -2.675212 -1.453465
| 24> H -3.863008 -4.284793 -1.282203
| 25> H -2.403708 -4.719219 -2.215644
| 26> H -3.366846 -3.277457 -2.686457
| 27> H -1.855008 -3.591944 -0.148281
| 28> Cl 3.306059 -4.814199 1.506354
| 29> Cl 1.006223 -5.246504 4.862392
| 30> Pb 0.310082 -5.492838 1.484168
| 31> N 2.161285 -2.658962 3.515767
| 32> C 3.006676 -1.740565 4.311813
| 33> H 2.698023 -3.156655 2.770259
| 34> H 1.390718 -2.163400 3.045648
| 35> H 3.799912 -2.319606 4.793333
| 36> H 2.384520 -1.246095 5.060700
| 37> H 3.427402 -0.991699 3.638613
| 38> H 1.731703 -3.427574 4.095222
| 39> Cl 0.332708 -5.424149 -1.291112
| 40> H -2.444419 -8.567556 -2.232135
| 41> H -0.598109 -7.323819 -1.165277
| 42> H -1.004862 -9.612620 -2.073837
| 43> C -1.775778 -9.065444 -1.523604
| 44> N -1.147567 -8.055720 -0.651573
| 45> Cl -2.538728 -5.969955 1.056720
| 46> H -1.842497 -7.478800 -0.094428
| 47> H -0.483324 -8.457680 0.056334
| 48> H -2.352281 -9.766255 -0.913124
| 49> Cl 0.872104 -8.635740 1.615290
| 50> H -3.020852 1.137851 -3.759427
| 51> H -2.443836 0.935457 -1.388789
| 52> C -2.421148 1.915242 -3.276964
| 53> H -3.072919 2.741318 -2.978333
| 54> N -1.760461 1.345922 -2.088558
| 55> H -1.130632 0.530708 -2.323343
| 56> H -1.666594 2.281032 -3.979276
| 57> H -1.165922 2.035435 -1.571092
| 58> H 3.622704 -8.508951 4.939340
| 59> H 2.344608 -7.817453 2.937850
| 60> C 4.032137 -7.791101 4.222778
| 61> H 4.696529 -8.309487 3.525223
| 62> N 2.932785 -7.146076 3.481813
| 63> H 2.277052 -6.592786 4.110347
| 64> H 4.597499 -7.025510 4.762093
| 65> H 3.269849 -6.425562 2.787786
| 66> *
| 67>
| 68>                          ****END OF INPUT****

CARTESIAN COORDINATES (ANGSTROEM)
---------------------------------
  C      3.321334    3.304660    2.430157
  N      2.356571    2.328752    1.891132
  H      3.929482    2.825089    3.202898
  H      2.779051    4.148026    2.867131
  H      3.970752    3.667461    1.628343
  H      1.712427    1.919960    2.626954
  H      2.798301    1.476145    1.466883
  H      1.726191    2.717573    1.143366
  Pb     0.007794   -0.208190    0.739388
  Cl     2.755167   -0.548961    0.799661
  Cl     0.243251    2.905072   -0.298223
  Cl     0.350388    0.655578    3.500524
  Cl    -3.310074   -0.279264   -0.032157
  Cl     0.030921   -1.151231   -2.200648
  Cl    -0.574203   -2.753401    1.827181
  N     -2.185808   -3.054212   -0.959335
  C     -3.018599   -3.892984   -1.852407
  H     -2.697680   -2.199715   -0.614166
  H     -1.345672   -2.675212   -1.453465
  H     -3.863008   -4.284793   -1.282203
  H     -2.403708   -4.719219   -2.215644
  H     -3.366846   -3.277457   -2.686457
  H     -1.855008   -3.591944   -0.148281
  Cl     3.306059   -4.814199    1.506354
  Cl     1.006223   -5.246504    4.862392
  Pb     0.310082   -5.492838    1.484168
  N      2.161285   -2.658962    3.515767
  C      3.006676   -1.740565    4.311813
  H      2.698023   -3.156655    2.770259
  H      1.390718   -2.163400    3.045648
  H      3.799912   -2.319606    4.793333
  H      2.384520   -1.246095    5.060700
  H      3.427402   -0.991699    3.638613
  H      1.731703   -3.427574    4.095222
  Cl     0.332708   -5.424149   -1.291112
  H     -2.444419   -8.567556   -2.232135
  H     -0.598109   -7.323819   -1.165277
  H     -1.004862   -9.612620   -2.073837
  C     -1.775778   -9.065444   -1.523604
  N     -1.147567   -8.055720   -0.651573
  Cl    -2.538728   -5.969955    1.056720
  H     -1.842497   -7.478800   -0.094428
  H     -0.483324   -8.457680    0.056334
  H     -2.352281   -9.766255   -0.913124
  Cl     0.872104   -8.635740    1.615290
  H     -3.020852    1.137851   -3.759427
  H     -2.443836    0.935457   -1.388789
  C     -2.421148    1.915242   -3.276964
  H     -3.072919    2.741318   -2.978333
  N     -1.760461    1.345922   -2.088558
  H     -1.130632    0.530708   -2.323343
  H     -1.666594    2.281032   -3.979276
  H     -1.165922    2.035435   -1.571092
  H      3.622704   -8.508951    4.939340
  H      2.344608   -7.817453    2.937850
  C      4.032137   -7.791101    4.222778
  H      4.696529   -8.309487    3.525223
  N      2.932785   -7.146076    3.481813
  H      2.277052   -6.592786    4.110347
  H      4.597499   -7.025510    4.762093
  H      3.269849   -6.425562    2.787786

 Total Charge           Charge          ....   -1
 Multiplicity           Mult            ....    1
 Number of Electrons    NEL             ....  346
 Basis Dimension        Dim             .... 1095

ORBITAL ENERGIES
----------------

  NO   OCC          E(Eh)            E(eV)
   0   2.0000    -102.758982     -2796.2141
   1   2.0000    -102.741338     -2795.7339
   2   2.0000    -102.738365     -2795.6530
   3   2.0000    -102.735345     -2795.5709
   4   2.0000    -102.734067     -2795.5361
   5   2.0000    -102.729360     -2795.4080
   6   2.0000    -102.727767     -2795.3647
   7   2.0000    -102.727107     -2795.3467
   8   2.0000    -102.722224     -2795.2138
   9   2.0000    -102.719329     -2795.1350
  10   2.0000    -102.716700     -2795.0635
  11   2.0000     -14.843573      -403.9142
  12   2.0000     -14.842374      -403.8815
  13   2.0000     -14.833454      -403.6388
  14   2.0000     -14.832110      -403.6022
  15   2.0000     -14.830774      -403.5659
  16   2.0000     -14.827022      -403.4638
  17   2.0000     -10.614980      -288.8483
  18   2.0000     -10.613114      -288.7975
  19   2.0000     -10.605690      -288.5955
  20   2.0000     -10.601130      -288.4714
  21   2.0000     -10.582486      -287.9641
  22   2.0000     -10.582238      -287.9573
  23   2.0000      -9.766602      -265.7627
  24   2.0000      -9.748196      -265.2619
  25   2.0000      -9.745255      -265.1819
  26   2.0000      -9.742476      -265.1063
  27   2.0000      -9.741096      -265.0687
  28   2.0000      -9.736177      -264.9349
  29   2.0000      -9.734968      -264.9019
  30   2.0000      -9.734172      -264.8803
  31   2.0000      -9.729268      -264.7469
  32   2.0000      -9.726443      -264.6700
  33   2.0000      -9.723823      -264.5987
  34   2.0000      -7.403378      -201.4561
  35   2.0000      -7.402064      -201.4204
  36   2.0000      -7.402041      -201.4198
  37   2.0000      -7.385027      -200.9568
  38   2.0000      -7.383942      -200.9273
  39   2.0000      -7.383473      -200.9145
  40   2.0000      -7.382080      -200.8766
  41   2.0000      -7.380998      -200.8472
  42   2.0000      -7.380547      -200.8349
  43   2.0000      -7.378823      -200.7880
  44   2.0000      -7.378684      -200.7842
  45   2.0000      -7.377985      -200.7652
  46   2.0000      -7.377572      -200.7539
  47   2.0000      -7.377095      -200.7410
  48   2.0000      -7.376552      -200.7262
  49   2.0000      -7.372689      -200.6211
  50   2.0000      -7.372167      -200.6069
  51   2.0000      -7.371644      -200.5926
  52   2.0000      -7.371389      -200.5857
  53   2.0000      -7.371095      -200.5777
  54   2.0000      -7.370499      -200.5615
  55   2.0000      -7.370415      -200.5592
  56   2.0000      -7.370234      -200.5543
  57   2.0000      -7.369825      -200.5431
  58   2.0000      -7.365483      -200.4250
  59   2.0000      -7.365364      -200.4217
  60   2.0000      -7.364934      -200.4101
  61   2.0000      -7.362739      -200.3503
  62   2.0000      -7.362353      -200.3398
  63   2.0000      -7.362274      -200.3377
  64   2.0000      -7.360107      -200.2787
  65   2.0000      -7.359752      -200.2690
  66   2.0000      -7.359650      -200.2663
  67   2.0000      -5.707971      -155.3218
  68   2.0000      -5.702926      -155.1845
  69   2.0000      -3.479135       -94.6721
  70   2.0000      -3.477830       -94.6366
  71   2.0000      -3.477534       -94.6285
  72   2.0000      -3.474072       -94.5343
  73   2.0000      -3.472815       -94.5001
  74   2.0000      -3.472523       -94.4922
  75   2.0000      -1.026329       -27.9278
  76   2.0000      -1.024378       -27.8748
  77   2.0000      -1.016407       -27.6578
  78   2.0000      -1.010845       -27.5065
  79   2.0000      -1.010345       -27.4929
  80   2.0000      -1.008868       -27.4527
  81   2.0000      -0.870289       -23.6818
  82   2.0000      -0.868209       -23.6252
  83   2.0000      -0.866638       -23.5824
  84   2.0000      -0.865992       -23.5648
  85   2.0000      -0.865524       -23.5521
  86   2.0000      -0.864731       -23.5305
  87   2.0000      -0.863528       -23.4978
  88   2.0000      -0.861882       -23.4530
  89   2.0000      -0.861016       -23.4294
  90   2.0000      -0.859823       -23.3970
  91   2.0000      -0.781494       -21.2655
  92   2.0000      -0.771752       -21.0004
  93   2.0000      -0.767766       -20.8920
  94   2.0000      -0.760636       -20.6980
  95   2.0000      -0.756247       -20.5785
  96   2.0000      -0.755711       -20.5640
  97   2.0000      -0.752882       -20.4870
  98   2.0000      -0.752054       -20.4644
  99   2.0000      -0.747712       -20.3463
 100   2.0000      -0.746907       -20.3244
 101   2.0000      -0.744615       -20.2620
 102   2.0000      -0.743580       -20.2338
 103   2.0000      -0.740397       -20.1472
 104   2.0000      -0.738803       -20.1038
 105   2.0000      -0.735176       -20.0051
 106   2.0000      -0.727142       -19.7865
 107   2.0000      -0.725317       -19.7369
 108   2.0000      -0.559444       -15.2232
 109   2.0000      -0.556956       -15.1555
 110   2.0000      -0.552228       -15.0269
 111   2.0000      -0.550560       -14.9815
 112   2.0000      -0.550178       -14.9711
 113   2.0000      -0.547734       -14.9046
 114   2.0000      -0.545520       -14.8444
 115   2.0000      -0.544426       -14.8146
 116   2.0000      -0.543771       -14.7968
 117   2.0000      -0.539588       -14.6829
 118   2.0000      -0.534380       -14.5412
 119   2.0000      -0.532067       -14.4783
 120   2.0000      -0.497803       -13.5459
 121   2.0000      -0.495626       -13.4867
 122   2.0000      -0.486583       -13.2406
 123   2.0000      -0.481333       -13.0977
 124   2.0000      -0.468647       -12.7525
 125   2.0000      -0.465246       -12.6600
 126   2.0000      -0.452936       -12.3250
 127   2.0000      -0.436653       -11.8819
 128   2.0000      -0.423266       -11.5177
 129   2.0000      -0.421103       -11.4588
 130   2.0000      -0.420909       -11.4535
 131   2.0000      -0.418796       -11.3960
 132   2.0000      -0.413511       -11.2522
 133   2.0000      -0.411532       -11.1983
 134   2.0000      -0.408978       -11.1289
 135   2.0000      -0.407024       -11.0757
 136   2.0000      -0.398453       -10.8425
 137   2.0000      -0.397537       -10.8175
 138   2.0000      -0.391702       -10.6588
 139   2.0000      -0.391444       -10.6517
 140   2.0000      -0.288087        -7.8393
 141   2.0000      -0.275223        -7.4892
 142   2.0000      -0.269823        -7.3422
 143   2.0000      -0.264042        -7.1849
 144   2.0000      -0.258429        -7.0322
 145   2.0000      -0.255565        -6.9543
 146   2.0000      -0.254192        -6.9169
 147   2.0000      -0.248796        -6.7701
 148   2.0000      -0.245338        -6.6760
 149   2.0000      -0.242759        -6.6058
 150   2.0000      -0.242100        -6.5879
 151   2.0000      -0.238676        -6.4947
 152   2.0000      -0.238113        -6.4794
 153   2.0000      -0.237133        -6.4527
 154   2.0000      -0.234876        -6.3913
 155   2.0000      -0.232539        -6.3277
 156   2.0000      -0.231818        -6.3081
 157   2.0000      -0.229881        -6.2554
 158   2.0000      -0.229245        -6.2381
 159   2.0000      -0.228764        -6.2250
 160   2.0000      -0.227388        -6.1875
 161   2.0000      -0.225855        -6.1458
 162   2.0000      -0.224728        -6.1151
 163   2.0000      -0.224401        -6.1063
 164   2.0000      -0.223880        -6.0921
 165   2.0000      -0.223528        -6.0825
 166   2.0000      -0.221449        -6.0259
 167   2.0000      -0.220379        -5.9968
 168   2.0000      -0.220247        -5.9932
 169   2.0000      -0.218081        -5.9343
 170   2.0000      -0.214489        -5.8365
 171   2.0000      -0.194483        -5.2921
 172   2.0000      -0.184414        -5.0182
 173   0.0000       0.096195         2.6176
 174   0.0000       0.111086         3.0228
 175   0.0000       0.119194         3.2434
 176   0.0000       0.122057         3.3213
 177   0.0000       0.125392         3.4121

MULLIKEN ATOMIC CHARGES
-----------------------
   0 C :   -0.251596
   1 N :   -0.287938
   2 H :    0.136451
   3 H :    0.142261
   4 H :    0.140630
   5 H :    0.272077
   6 H :    0.268305
   7 H :    0.281023
   8 Pb:    0.993586
   9 Cl:   -0.606998
  10 Cl:   -0.720523
  11 Cl:   -0.654118
  12 Cl:   -0.702860
  13 Cl:   -0.670640
  14 Cl:   -0.593604
  15 N :   -0.273113
  16 C :   -0.240627
  17 H :    0.274837
  18 H :    0.297506
  19 H :    0.147613
  20 H :    0.137534
  21 H :    0.122760
  22 H :    0.293297
  23 Cl:   -0.666146
  24 Cl:   -0.702792
  25 Pb:    0.992722
  26 N :   -0.277487
  27 C :   -0.235770
  28 H :    0.294440
  29 H :    0.295510
  30 H :    0.120687
  31 H :    0.150573
  32 H :    0.137965
  33 H :    0.274763
  34 Cl:   -0.603018
  35 H :    0.136661
  36 H :    0.267658
  37 H :    0.140633
  38 C :   -0.250503
  39 N :   -0.292526
  40 Cl:   -0.651297
  41 H :    0.277007
  42 H :    0.281126
  43 H :    0.142023
  44 Cl:   -0.710867
  45 H :    0.133474
  46 H :    0.271341
  47 C :   -0.244326
  48 H :    0.135282
  49 N :   -0.284492
  50 H :    0.260488
  51 H :    0.136842
  52 H :    0.275940
  53 H :    0.137448
  54 H :    0.274512
  55 C :   -0.245438
  56 H :    0.137509
  57 N :   -0.286582
  58 H :    0.273041
  59 H :    0.136176
  60 H :    0.261560
Sum of atomic charges:   -1.0000000

LOEWDIN ATOMIC CHARGES
----------------------
   0 C :   -0.297194
   1 N :    0.065104
   2 H :    0.117653
   3 H :    0.119640
   4 H :    0.118240
   5 H :    0.149497
   6 H :    0.154649
   7 H :    0.148191
   8 Pb:    0.070239
   9 Cl:   -0.331641
  10 Cl:   -0.527691
  11 Cl:   -0.418145
  12 Cl:   -0.527983
  13 Cl:   -0.447526
  14 Cl:   -0.150474
  15 N :    0.092491
  16 C :   -0.302696
  17 H :    0.150153
  18 H :    0.160467
  19 H :    0.116921
  20 H :    0.111785
  21 H :    0.112559
  22 H :    0.172762
  23 Cl:   -0.439815
  24 Cl:   -0.533010
  25 Pb:    0.088531
  26 N :    0.092503
  27 C :   -0.301270
  28 H :    0.158298
  29 H :    0.174138
  30 H :    0.111790
  31 H :    0.118340
  32 H :    0.111873
  33 H :    0.150155
  34 Cl:   -0.329906
  35 H :    0.117695
  36 H :    0.152768
  37 H :    0.118210
  38 C :   -0.297565
  39 N :    0.062756
  40 Cl:   -0.406342
  41 H :    0.146089
  42 H :    0.147294
  43 H :    0.119445
  44 Cl:   -0.506757
  45 H :    0.117654
  46 H :    0.139766
  47 C :   -0.300573
  48 H :    0.116787
  49 N :    0.060136
  50 H :    0.142991
  51 H :    0.117416
  52 H :    0.144921
  53 H :    0.117666
  54 H :    0.150390
  55 C :   -0.299426
  56 H :    0.117285
  57 N :    0.061429
  58 H :    0.138413
  59 H :    0.118557
  60 H :    0.144364

  Mayer bond orders larger than 0.1
B(  0-C ,  1-N ) :   0.9347 B(  0-C ,  2-H ) :   0.9748 B(  0-C ,  3-H ) :   0.9745
B(  0-C ,  4-H ) :   0.9742 B(  1-N ,  5-H ) :   0.7862 B(  1-N ,  6-H ) :   0.8128
B(  1-N ,  7-H ) :   0.8004 B(  5-H , 11-Cl) :   0.2263 B(  6-H ,  9-Cl) :   0.1876
B(  7-H , 10-Cl) :   0.1889 B(  8-Pb,  9-Cl) :   0.4806 B(  8-Pb, 10-Cl) :   0.1677
B(  8-Pb, 11-Cl) :   0.3615 B(  8-Pb, 12-Cl) :   0.1429 B(  8-Pb, 13-Cl) :   0.2533
B(  8-Pb, 14-Cl) :   0.3140 B( 10-Cl, 52-H ) :   0.1719 B( 12-Cl, 17-H ) :   0.2022
B( 12-Cl, 46-H ) :   0.2349 B( 13-Cl, 18-H ) :   0.1353 B( 13-Cl, 50-H ) :   0.2362
B( 14-Cl, 25-Pb) :   0.2813 B( 15-N , 16-C ) :   0.9304 B( 15-N , 17-H ) :   0.8010
B( 15-N , 18-H ) :   0.8250 B( 15-N , 22-H ) :   0.8692 B( 16-C , 19-H ) :   0.9700
B( 16-C , 20-H ) :   0.9668 B( 16-C , 21-H ) :   0.9705 B( 23-Cl, 25-Pb) :   0.2644
B( 23-Cl, 28-H ) :   0.1384 B( 23-Cl, 60-H ) :   0.2288 B( 24-Cl, 25-Pb) :   0.1351
B( 24-Cl, 33-H ) :   0.1974 B( 24-Cl, 58-H ) :   0.2492 B( 25-Pb, 34-Cl) :   0.4887
B( 25-Pb, 40-Cl) :   0.3489 B( 25-Pb, 44-Cl) :   0.2032 B( 26-N , 27-C ) :   0.9267
B( 26-N , 28-H ) :   0.8245 B( 26-N , 29-H ) :   0.8675 B( 26-N , 33-H ) :   0.8043
B( 27-C , 30-H ) :   0.9706 B( 27-C , 31-H ) :   0.9692 B( 27-C , 32-H ) :   0.9657
B( 34-Cl, 36-H ) :   0.1896 B( 35-H , 38-C ) :   0.9750 B( 36-H , 39-N ) :   0.8118
B( 37-H , 38-C ) :   0.9742 B( 38-C , 39-N ) :   0.9324 B( 38-C , 43-H ) :   0.9747
B( 39-N , 41-H ) :   0.7804 B( 39-N , 42-H ) :   0.8044 B( 40-Cl, 41-H ) :   0.2270
B( 42-H , 44-Cl) :   0.1827 B( 44-Cl, 54-H ) :   0.1581 B( 45-H , 47-C ) :   0.9753
B( 46-H , 49-N ) :   0.7783 B( 47-C , 48-H ) :   0.9759 B( 47-C , 49-N ) :   0.9406
B( 47-C , 51-H ) :   0.9750 B( 49-N , 50-H ) :   0.7885 B( 49-N , 52-H ) :   0.8143
B( 53-H , 55-C ) :   0.9757 B( 54-H , 57-N ) :   0.8247 B( 55-C , 56-H ) :   0.9747
B( 55-C , 57-N ) :   0.9369 B( 55-C , 59-H ) :   0.9748 B( 57-N , 58-H ) :   0.7684
B( 57-N , 60-H ) :   0.7916

MP2 TOTAL ENERGY:    -6025.869459680 Eh
Dispersion correction           -0.080393956
FINAL SINGLE POINT ENERGY     -6025.949853635436

DIPOLE MOMENT
-------------
                                X             Y             Z
Electronic contribution:    -31.64921       0.89002      35.04269
Nuclear contribution   :     32.95689      -1.42359     -36.21770
                        -----------------------------------------
Total Dipole Moment    :      1.30769      -0.53357      -1.17501
                        -----------------------------------------
Magnitude (a.u.)       :      1.83722
Magnitude (Debye)      :      4.66985

                             ****ORCA TERMINATED NORMALLY****
TOTAL RUN TIME: 0 days 1 hours 9 minutes 43 seconds 319 msec
