                         Program Version 3.0.3 - RELEASE   -
|  1> ! RIJCOSX RI-B2PLYP D3BJ def2-TZVP ECP{def2-TZVP} TIGHTSCF Grid5 FinalGrid6 SlowConv MORead
|  2> %method
|  3>  RunTyp Gradient
|  4>  end
|  5> %maxcore 1000
|  6> %moinp "previous.gbw"
|  7> *xyz 0 1
|  8> C -0.394281 0.276013 -0.426662
|  9> N -1.165380 -0.685592 -1.253010
| 10> H 0.248796 -0.278576 0.260517
| 11> H -1.090820 0.897444 0.140826
| 12> H 0.215705 0.904875 -1.079130
| 13> H -1.783150 -1.324970 -0.698370
| 14> H -0.582260 -1.326300 -1.835140
| 15> H -1.813140 -0.240924 -1.938260
| 16> Pb -2.742870 -2.774520 -3.031780
| 17> Cl -0.915391 -3.065780 -1.369550
| 18> Cl -3.425430 -0.926339 -1.405030
| 19> Cl -2.642310 -3.182350 -0.599195
| 20> *
| 21>
| 22>                          ****END OF INPUT****

CARTESIAN COORDINATES (ANGSTROEM)
---------------------------------
  C     -0.394281    0.276013   -0.426662
  N     -1.165380   -0.685592   -1.253010
  H      0.248796   -0.278576    0.260517
  H     -1.090820    0.897444    0.140826
  H      0.215705    0.904875   -1.079130
  H     -1.783150   -1.324970   -0.698370
  H     -0.582260   -1.326300   -1.835140
  H     -1.813140   -0.240924   -1.938260
  Pb    -2.742870   -2.774520   -3.031780
  Cl    -0.915391   -3.065780   -1.369550
  Cl    -3.425430   -0.926339   -1.405030
  Cl    -2.642310   -3.182350   -0.599195

 Total Charge           Charge          ....    0
 Multiplicity           Mult            ....    1
 Number of Electrons    NEL             ....   92
 Basis Dimension        Dim             ....  259

ORBITAL ENERGIES
----------------

  NO   OCC          E(Eh)            E(eV)
   0   2.0000    -102.886123     -2799.6738
   1   2.0000    -102.869944     -2799.2335
   2   2.0000    -102.825812     -2798.0326
   3   2.0000     -14.918422      -405.9509
   4   2.0000     -10.687051      -290.8094
   5   2.0000      -9.900275      -269.4002
   6   2.0000      -9.883683      -268.9487
   7   2.0000      -9.840125      -267.7634
   8   2.0000      -7.538574      -205.1350
   9   2.0000      -7.533944      -205.0090
  10   2.0000      -7.532827      -204.9787
  11   2.0000      -7.522041      -204.6852
  12   2.0000      -7.517102      -204.5507
  13   2.0000      -7.516533      -204.5353
  14   2.0000      -7.476384      -203.4427
  15   2.0000      -7.474812      -203.4000
  16   2.0000      -7.474654      -203.3957
  17   2.0000      -5.778206      -157.2330
  18   2.0000      -3.551996       -96.6547
  19   2.0000      -3.549714       -96.5926
  20   2.0000      -3.544446       -96.4493
  21   2.0000      -1.140292       -31.0289
  22   2.0000      -1.068212       -29.0675
  23   2.0000      -0.958945       -26.0942
  24   2.0000      -0.945446       -25.7269
  25   2.0000      -0.939826       -25.5740
  26   2.0000      -0.936270       -25.4772
  27   2.0000      -0.932333       -25.3701
  28   2.0000      -0.891598       -24.2616
  29   2.0000      -0.849100       -23.1052
  30   2.0000      -0.807592       -21.9757
  31   2.0000      -0.662995       -18.0410
  32   2.0000      -0.656386       -17.8612
  33   2.0000      -0.593620       -16.1532
  34   2.0000      -0.577358       -15.7107
  35   2.0000      -0.518633       -14.1127
  36   2.0000      -0.513567       -13.9749
  37   2.0000      -0.492609       -13.4046
  38   2.0000      -0.441302       -12.0084
  39   2.0000      -0.416515       -11.3339
  40   2.0000      -0.377882       -10.2827
  41   2.0000      -0.352151        -9.5825
  42   2.0000      -0.329908        -8.9773
  43   2.0000      -0.312366        -8.4999
  44   2.0000      -0.265443        -7.2231
  45   2.0000      -0.130423        -3.5490
  46   0.0000      -0.036914        -1.0045
  47   0.0000       0.001291         0.0351
  48   0.0000       0.021435         0.5833
  49   0.0000       0.052306         1.4233
  50   0.0000       0.098311         2.6752

Dispersion correction            ...

MULLIKEN ATOMIC CHARGES
-----------------------
   0 C :   -0.280122
   1 N :   -0.220900
   2 H :    0.147316
   3 H :    0.153926
   4 H :    0.145854
   5 H :    0.276513
   6 H :    0.258416
   7 H :    0.266160
   8 Pb:    0.345352
   9 Cl:   -0.302089
  10 Cl:   -0.538724
  11 Cl:   -0.251703
Sum of atomic charges:   -0.0000000

LOEWDIN ATOMIC CHARGES
----------------------
   0 C :   -0.311538
   1 N :   -0.030966
   2 H :    0.121854
   3 H :    0.124267
   4 H :    0.121144
   5 H :    0.121750
   6 H :    0.128263
   7 H :    0.141928
   8 Pb:   -0.273758
   9 Cl:    0.006797
  10 Cl:   -0.138682
  11 Cl:   -0.011058

  Mayer bond orders larger than 0.1
B(  0-C ,  1-N ) :   0.9040 B(  0-C ,  2-H ) :   0.9512 B(  0-C ,  3-H ) :   0.9485
B(  0-C ,  4-H ) :   0.9526 B(  1-N ,  5-H ) :   0.7894 B(  1-N ,  6-H ) :   0.7851
B(  1-N ,  7-H ) :   0.7913 B(  5-H , 11-Cl) :   0.1220 B(  6-H ,  9-Cl) :   0.1242
B(  7-H , 10-Cl) :   0.1301 B(  8-Pb,  9-Cl) :   0.6758 B(  8-Pb, 10-Cl) :   0.5302
B(  8-Pb, 11-Cl) :   0.6819 B(  9-Cl, 11-Cl) :   0.3842

MP2 TOTAL ENERGY:    -1669.166436051 Eh
Dispersion correction           -0.016788329
FINAL SINGLE POINT ENERGY     -1669.183224380430

DIPOLE MOMENT
-------------
                                X             Y             Z
Electronic contribution:    -54.58645     -65.36989    -124.92979
Nuclear contribution   :     56.10404      66.62036     124.59930
                        -----------------------------------------
Total Dipole Moment    :      1.51760       1.25047      -0.33049
                        -----------------------------------------
Magnitude (a.u.)       :      1.99399
Magnitude (Debye)      :      5.06833

                             ****ORCA TERMINATED NORMALLY****
TOTAL RUN TIME: 0 days 0 hours 24 minutes 14 seconds 970 msec
