                         Program Version 3.0.3 - RELEASE   -
|  1> ! RIJCOSX RI-B2PLYP D3BJ def2-TZVP ECP{def2-TZVP} TIGHTSCF Grid5 FinalGrid6 SlowConv MORead
|  2> %method
|  3>  RunTyp Gradient
|  4>  end
|  5> %maxcore 1000
|  6> %moinp "previous.gbw"
|  7> *xyz 0 1
|  8> C -0.394281 0.276013 -0.426662
|  9> N -1.165380 -0.685592 -1.253010
| 10> H 0.248796 -0.278576 0.260517
| 11> H -1.090820 0.897444 0.140826
| 12> H 0.215705 0.904875 -1.079130
| 13> H -1.783150 -1.324970 -0.698370
| 14> H -0.582260 -1.326300 -1.835140
| 15> H -1.813140 -0.240924 -1.938260
| 16> Pb -2.525830 -2.689980 -3.007730
| 17> Cl -0.036539 -2.858990 -2.996170
| 18> Cl -3.138470 -0.283192 -3.427290
| 19> Cl -3.076010 -3.046960 -0.587720
| 20> *
| 21>
| 22>                          ****END OF INPUT****

CARTESIAN COORDINATES (ANGSTROEM)
---------------------------------
  C     -0.394281    0.276013   -0.426662
  N     -1.165380   -0.685592   -1.253010
  H      0.248796   -0.278576    0.260517
  H     -1.090820    0.897444    0.140826
  H      0.215705    0.904875   -1.079130
  H     -1.783150   -1.324970   -0.698370
  H     -0.582260   -1.326300   -1.835140
  H     -1.813140   -0.240924   -1.938260
  Pb    -2.525830   -2.689980   -3.007730
  Cl    -0.036539   -2.858990   -2.996170
  Cl    -3.138470   -0.283192   -3.427290
  Cl    -3.076010   -3.046960   -0.587720

 Total Charge           Charge          ....    0
 Multiplicity           Mult            ....    1
 Number of Electrons    NEL             ....   92
 Basis Dimension        Dim             ....  259

ORBITAL ENERGIES
----------------

  NO   OCC          E(Eh)            E(eV)
   0   2.0000    -102.868017     -2799.1811
   1   2.0000    -102.865398     -2799.1098
   2   2.0000    -102.862533     -2799.0318
   3   2.0000     -14.956115      -406.9766
   4   2.0000     -10.709283      -291.4144
   5   2.0000      -9.876443      -268.7517
   6   2.0000      -9.873811      -268.6801
   7   2.0000      -9.870444      -268.5884
   8   2.0000      -7.513369      -204.4492
   9   2.0000      -7.511862      -204.4081
  10   2.0000      -7.511324      -204.3935
  11   2.0000      -7.510689      -204.3762
  12   2.0000      -7.509231      -204.3366
  13   2.0000      -7.508739      -204.3232
  14   2.0000      -7.507466      -204.2885
  15   2.0000      -7.505816      -204.2436
  16   2.0000      -7.505373      -204.2316
  17   2.0000      -5.799811      -157.8209
  18   2.0000      -3.571826       -97.1943
  19   2.0000      -3.569893       -97.1417
  20   2.0000      -3.569712       -97.1368
  21   2.0000      -1.143628       -31.1197
  22   2.0000      -0.977422       -26.5970
  23   2.0000      -0.975706       -26.5503
  24   2.0000      -0.964482       -26.2449
  25   2.0000      -0.960290       -26.1308
  26   2.0000      -0.959274       -26.1032
  27   2.0000      -0.908256       -24.7149
  28   2.0000      -0.881299       -23.9814
  29   2.0000      -0.874867       -23.8063
  30   2.0000      -0.857605       -23.3366
  31   2.0000      -0.670542       -18.2464
  32   2.0000      -0.669081       -18.2066
  33   2.0000      -0.609188       -16.5769
  34   2.0000      -0.560336       -15.2475
  35   2.0000      -0.522310       -14.2128
  36   2.0000      -0.521537       -14.1917
  37   2.0000      -0.404694       -11.0123
  38   2.0000      -0.400064       -10.8863
  39   2.0000      -0.383017       -10.4224
  40   2.0000      -0.365677        -9.9506
  41   2.0000      -0.364960        -9.9311
  42   2.0000      -0.362188        -9.8556
  43   2.0000      -0.359523        -9.7831
  44   2.0000      -0.352438        -9.5903
  45   2.0000      -0.289664        -7.8822
  46   0.0000      -0.009790        -0.2664
  47   0.0000       0.029141         0.7930
  48   0.0000       0.035791         0.9739
  49   0.0000       0.042210         1.1486
  50   0.0000       0.090510         2.4629

Dispersion correction            ...

MULLIKEN ATOMIC CHARGES
-----------------------
   0 C :   -0.284313
   1 N :   -0.323484
   2 H :    0.164299
   3 H :    0.163329
   4 H :    0.163480
   5 H :    0.285457
   6 H :    0.286159
   7 H :    0.289625
   8 Pb:    0.709789
   9 Cl:   -0.477922
  10 Cl:   -0.489676
  11 Cl:   -0.486742
Sum of atomic charges:    0.0000000

LOEWDIN ATOMIC CHARGES
----------------------
   0 C :   -0.287310
   1 N :    0.061745
   2 H :    0.128608
   3 H :    0.128162
   4 H :    0.128579
   5 H :    0.165868
   6 H :    0.142232
   7 H :    0.143151
   8 Pb:   -0.138441
   9 Cl:   -0.144876
  10 Cl:   -0.160944
  11 Cl:   -0.166775

  Mayer bond orders larger than 0.1
B(  0-C ,  1-N ) :   0.8852 B(  0-C ,  2-H ) :   0.9530 B(  0-C ,  3-H ) :   0.9520
B(  0-C ,  4-H ) :   0.9529 B(  1-N ,  5-H ) :   0.8015 B(  1-N ,  6-H ) :   0.7756
B(  1-N ,  7-H ) :   0.7785 B(  5-H , 11-Cl) :   0.1513 B(  6-H ,  9-Cl) :   0.1909
B(  7-H , 10-Cl) :   0.1815 B(  8-Pb,  9-Cl) :   0.6652 B(  8-Pb, 10-Cl) :   0.6470
B(  8-Pb, 11-Cl) :   0.6857

MP2 TOTAL ENERGY:    -1669.603529755 Eh
Dispersion correction           -0.014341718
FINAL SINGLE POINT ENERGY     -1669.617871473052

DIPOLE MOMENT
-------------
                                X             Y             Z
Electronic contribution:    -52.12487     -74.22675     -70.29597
Nuclear contribution   :     52.96959      75.40608      71.10702
                        -----------------------------------------
Total Dipole Moment    :      0.84472       1.17933       0.81104
                        -----------------------------------------
Magnitude (a.u.)       :      1.66197
Magnitude (Debye)      :      4.22440

                             ****ORCA TERMINATED NORMALLY****
TOTAL RUN TIME: 0 days 0 hours 14 minutes 5 seconds 114 msec
