                         Program Version 3.0.3 - RELEASE   -
|  1> ! RIJCOSX RI-B2PLYP D3BJ def2-TZVP ECP{def2-TZVP} TIGHTSCF Grid5 FinalGrid6 MORead
|  2> %method
|  3>  RunTyp Gradient
|  4>  end
|  5> %maxcore 1000
|  6> %moinp "previous.gbw"
|  7> *xyz 0 1
|  8> C 2.891451 3.575826 2.778059
|  9> N 2.089424 2.555032 2.059582
| 10> H 3.558472 3.076137 3.484362
| 11> H 2.218727 4.247132 3.316750
| 12> H 3.479382 4.144646 2.054078
| 13> H 1.492676 1.958835 2.673590
| 14> H 2.651801 1.866309 1.511973
| 15> H 1.418732 2.942131 1.359080
| 16> Pb 0.105946 0.001067 0.297682
| 17> Cl 2.793635 0.242925 0.312062
| 18> Cl -0.086369 2.651665 -0.057358
| 19> Cl 0.049934 0.350966 2.901441
| 20> Cl -2.528761 -0.110717 0.322606
| 21> Cl 0.179022 -0.267778 -2.354202
| 22> Cl 0.359419 -2.490642 0.615604
| 23> N -1.944119 -2.595072 -1.633806
| 24> C -2.725500 -3.643046 -2.335777
| 25> H -2.519034 -1.905375 -1.102173
| 26> H -1.352579 -2.002501 -2.255638
| 27> H -3.308461 -4.206070 -1.603344
| 28> H -2.038395 -4.314606 -2.855607
| 29> H -3.396098 -3.169682 -3.056568
| 30> H -1.270867 -2.959590 -0.921865
| 31> *
| 32>
| 33>                          ****END OF INPUT****

CARTESIAN COORDINATES (ANGSTROEM)
---------------------------------
  C      2.891451    3.575826    2.778059
  N      2.089424    2.555032    2.059582
  H      3.558472    3.076137    3.484362
  H      2.218727    4.247132    3.316750
  H      3.479382    4.144646    2.054078
  H      1.492676    1.958835    2.673590
  H      2.651801    1.866309    1.511973
  H      1.418732    2.942131    1.359080
  Pb     0.105946    0.001067    0.297682
  Cl     2.793635    0.242925    0.312062
  Cl    -0.086369    2.651665   -0.057358
  Cl     0.049934    0.350966    2.901441
  Cl    -2.528761   -0.110717    0.322606
  Cl     0.179022   -0.267778   -2.354202
  Cl     0.359419   -2.490642    0.615604
  N     -1.944119   -2.595072   -1.633806
  C     -2.725500   -3.643046   -2.335777
  H     -2.519034   -1.905375   -1.102173
  H     -1.352579   -2.002501   -2.255638
  H     -3.308461   -4.206070   -1.603344
  H     -2.038395   -4.314606   -2.855607
  H     -3.396098   -3.169682   -3.056568
  H     -1.270867   -2.959590   -0.921865

 Total Charge           Charge          ....    0
 Multiplicity           Mult            ....    1
 Number of Electrons    NEL             ....  162
 Basis Dimension        Dim             ....  468

ORBITAL ENERGIES
----------------

  NO   OCC          E(Eh)            E(eV)
   0   2.0000    -102.879899     -2799.5044
   1   2.0000    -102.866193     -2799.1314
   2   2.0000    -102.865512     -2799.1129
   3   2.0000    -102.864083     -2799.0740
   4   2.0000    -102.861829     -2799.0127
   5   2.0000    -102.859737     -2798.9557
   6   2.0000     -14.977540      -407.5596
   7   2.0000     -14.940398      -406.5489
   8   2.0000     -10.718659      -291.6695
   9   2.0000     -10.697559      -291.0954
  10   2.0000      -9.886426      -269.0233
  11   2.0000      -9.872085      -268.6331
  12   2.0000      -9.871711      -268.6229
  13   2.0000      -9.869762      -268.5699
  14   2.0000      -9.867987      -268.5216
  15   2.0000      -9.866133      -268.4711
  16   2.0000      -7.524565      -204.7538
  17   2.0000      -7.521267      -204.6641
  18   2.0000      -7.520828      -204.6521
  19   2.0000      -7.510113      -204.3606
  20   2.0000      -7.509739      -204.3504
  21   2.0000      -7.507801      -204.2976
  22   2.0000      -7.507111      -204.2789
  23   2.0000      -7.506702      -204.2677
  24   2.0000      -7.506647      -204.2663
  25   2.0000      -7.506214      -204.2545
  26   2.0000      -7.505943      -204.2471
  27   2.0000      -7.504786      -204.2156
  28   2.0000      -7.504333      -204.2033
  29   2.0000      -7.503932      -204.1924
  30   2.0000      -7.503038      -204.1680
  31   2.0000      -7.502492      -204.1532
  32   2.0000      -7.501302      -204.1208
  33   2.0000      -7.500707      -204.1046
  34   2.0000      -5.838575      -158.8757
  35   2.0000      -3.611472       -98.2732
  36   2.0000      -3.610554       -98.2482
  37   2.0000      -3.610489       -98.2464
  38   2.0000      -1.150461       -31.3056
  39   2.0000      -1.122579       -30.5469
  40   2.0000      -1.012594       -27.5541
  41   2.0000      -1.008919       -27.4541
  42   2.0000      -0.997366       -27.1397
  43   2.0000      -0.996116       -27.1057
  44   2.0000      -0.995727       -27.0951
  45   2.0000      -0.904832       -24.6217
  46   2.0000      -0.885324       -24.0909
  47   2.0000      -0.880003       -23.9461
  48   2.0000      -0.877466       -23.8771
  49   2.0000      -0.867564       -23.6076
  50   2.0000      -0.863149       -23.4875
  51   2.0000      -0.861799       -23.4507
  52   2.0000      -0.844329       -22.9754
  53   2.0000      -0.676630       -18.4120
  54   2.0000      -0.676525       -18.4092
  55   2.0000      -0.650506       -17.7012
  56   2.0000      -0.650230       -17.6937
  57   2.0000      -0.610503       -16.6126
  58   2.0000      -0.586827       -15.9684
  59   2.0000      -0.573220       -15.5981
  60   2.0000      -0.528899       -14.3921
  61   2.0000      -0.528757       -14.3882
  62   2.0000      -0.509028       -13.8514
  63   2.0000      -0.508672       -13.8417
  64   2.0000      -0.413649       -11.2560
  65   2.0000      -0.408506       -11.1160
  66   2.0000      -0.407725       -11.0948
  67   2.0000      -0.375719       -10.2238
  68   2.0000      -0.371316       -10.1040
  69   2.0000      -0.367322        -9.9953
  70   2.0000      -0.354518        -9.6469
  71   2.0000      -0.352233        -9.5847
  72   2.0000      -0.349823        -9.5192
  73   2.0000      -0.348974        -9.4961
  74   2.0000      -0.344919        -9.3857
  75   2.0000      -0.343968        -9.3598
  76   2.0000      -0.338082        -9.1997
  77   2.0000      -0.337683        -9.1888
  78   2.0000      -0.336538        -9.1577
  79   2.0000      -0.335955        -9.1418
  80   2.0000      -0.331349        -9.0165
  81   0.0000      -0.129390        -3.5209
  82   0.0000       0.029670         0.8074
  83   0.0000       0.049366         1.3433
  84   0.0000       0.072228         1.9654
  85   0.0000       0.079872         2.1734

Dispersion correction            ...

MULLIKEN ATOMIC CHARGES
-----------------------
   0 C :   -0.277815
   1 N :   -0.287389
   2 H :    0.158988
   3 H :    0.159388
   4 H :    0.160402
   5 H :    0.271598
   6 H :    0.274527
   7 H :    0.270773
   8 Pb:    1.009488
   9 Cl:   -0.433873
  10 Cl:   -0.418094
  11 Cl:   -0.414595
  12 Cl:   -0.424248
  13 Cl:   -0.425019
  14 Cl:   -0.395698
  15 N :   -0.281888
  16 C :   -0.277718
  17 H :    0.276659
  18 H :    0.277707
  19 H :    0.167283
  20 H :    0.167069
  21 H :    0.167131
  22 H :    0.275326
Sum of atomic charges:    0.0000000

LOEWDIN ATOMIC CHARGES
----------------------
   0 C :   -0.293115
   1 N :    0.069529
   2 H :    0.126101
   3 H :    0.125949
   4 H :    0.126615
   5 H :    0.159298
   6 H :    0.142819
   7 H :    0.150700
   8 Pb:   -0.485232
   9 Cl:   -0.160645
  10 Cl:   -0.148344
  11 Cl:   -0.133247
  12 Cl:   -0.152955
  13 Cl:   -0.166213
  14 Cl:   -0.078884
  15 N :    0.091992
  16 C :   -0.283508
  17 H :    0.172511
  18 H :    0.173981
  19 H :    0.129332
  20 H :    0.129269
  21 H :    0.129419
  22 H :    0.174629

  Mayer bond orders larger than 0.1
B(  0-C ,  1-N ) :   0.8956 B(  0-C ,  2-H ) :   0.9535 B(  0-C ,  3-H ) :   0.9530
B(  0-C ,  4-H ) :   0.9529 B(  1-N ,  5-H ) :   0.8138 B(  1-N ,  6-H ) :   0.7867
B(  1-N ,  7-H ) :   0.8004 B(  5-H , 11-Cl) :   0.1529 B(  6-H ,  9-Cl) :   0.1887
B(  7-H , 10-Cl) :   0.1726 B(  8-Pb,  9-Cl) :   0.5464 B(  8-Pb, 10-Cl) :   0.5588
B(  8-Pb, 11-Cl) :   0.5950 B(  8-Pb, 12-Cl) :   0.5869 B(  8-Pb, 13-Cl) :   0.5783
B(  8-Pb, 14-Cl) :   0.6321 B( 12-Cl, 17-H ) :   0.1525 B( 13-Cl, 18-H ) :   0.1493
B( 14-Cl, 22-H ) :   0.1401 B( 15-N , 16-C ) :   0.8900 B( 15-N , 17-H ) :   0.8142
B( 15-N , 18-H ) :   0.8163 B( 15-N , 22-H ) :   0.8210 B( 16-C , 19-H ) :   0.9501
B( 16-C , 20-H ) :   0.9502 B( 16-C , 21-H ) :   0.9506

MP2 TOTAL ENERGY:    -3146.409076794 Eh
Dispersion correction           -0.030152590
FINAL SINGLE POINT ENERGY     -3146.439229383638

DIPOLE MOMENT
-------------
                                X             Y             Z
Electronic contribution:     -0.83420      -3.50677       2.65793
Nuclear contribution   :      0.38825       2.72651      -2.97118
                        -----------------------------------------
Total Dipole Moment    :     -0.44595      -0.78026      -0.31325
                        -----------------------------------------
Magnitude (a.u.)       :      0.95174
Magnitude (Debye)      :      2.41912

                             ****ORCA TERMINATED NORMALLY****
TOTAL RUN TIME: 0 days 0 hours 37 minutes 23 seconds 918 msec
