                         Program Version 3.0.3 - RELEASE   -
|  1> ! RIJCOSX RI-B2PLYP D3BJ def2-TZVP ECP{def2-TZVP} TIGHTSCF Grid5 FinalGrid6 SlowConv MORead
|  2> %method
|  3>  RunTyp Gradient
|  4>  end
|  5> %maxcore 1000
|  6> %moinp "previous.gbw"
|  7> *xyz 0 1
|  8> C -0.394281 0.276013 -0.426662
|  9> N -1.165380 -0.685592 -1.253010
| 10> H 0.248796 -0.278576 0.260517
| 11> H -1.090820 0.897444 0.140826
| 12> H 0.215705 0.904875 -1.079130
| 13> H -1.783150 -1.324970 -0.698370
| 14> H -0.582260 -1.326300 -1.835140
| 15> H -1.813140 -0.240924 -1.938260
| 16> Pb -2.600620 -2.587420 -3.084480
| 17> Cl -0.260571 -1.950850 -3.706950
| 18> Cl -3.633060 -0.297755 -2.753490
| 19> Cl -2.283610 -3.478800 -0.793359
| 20> *
| 21>
| 22>                          ****END OF INPUT****

CARTESIAN COORDINATES (ANGSTROEM)
---------------------------------
  C     -0.394281    0.276013   -0.426662
  N     -1.165380   -0.685592   -1.253010
  H      0.248796   -0.278576    0.260517
  H     -1.090820    0.897444    0.140826
  H      0.215705    0.904875   -1.079130
  H     -1.783150   -1.324970   -0.698370
  H     -0.582260   -1.326300   -1.835140
  H     -1.813140   -0.240924   -1.938260
  Pb    -2.600620   -2.587420   -3.084480
  Cl    -0.260571   -1.950850   -3.706950
  Cl    -3.633060   -0.297755   -2.753490
  Cl    -2.283610   -3.478800   -0.793359

 Total Charge           Charge          ....    0
 Multiplicity           Mult            ....    1
 Number of Electrons    NEL             ....   92
 Basis Dimension        Dim             ....  259

ORBITAL ENERGIES
----------------

  NO   OCC          E(Eh)            E(eV)
   0   2.0000    -102.865510     -2799.1128
   1   2.0000    -102.864856     -2799.0950
   2   2.0000    -102.863460     -2799.0571
   3   2.0000     -14.955059      -406.9479
   4   2.0000     -10.707229      -291.3585
   5   2.0000      -9.874086      -268.6876
   6   2.0000      -9.873032      -268.6589
   7   2.0000      -9.871772      -268.6246
   8   2.0000      -7.511040      -204.3858
   9   2.0000      -7.510092      -204.3600
  10   2.0000      -7.509440      -204.3422
  11   2.0000      -7.508978      -204.3297
  12   2.0000      -7.508688      -204.3218
  13   2.0000      -7.508292      -204.3110
  14   2.0000      -7.507989      -204.3028
  15   2.0000      -7.507185      -204.2809
  16   2.0000      -7.506718      -204.2682
  17   2.0000      -5.799036      -157.7998
  18   2.0000      -3.570619       -97.1615
  19   2.0000      -3.569472       -97.1303
  20   2.0000      -3.569038       -97.1184
  21   2.0000      -1.141692       -31.0670
  22   2.0000      -0.977094       -26.5881
  23   2.0000      -0.975558       -26.5463
  24   2.0000      -0.962343       -26.1867
  25   2.0000      -0.959369       -26.1058
  26   2.0000      -0.958731       -26.0884
  27   2.0000      -0.909075       -24.7372
  28   2.0000      -0.878668       -23.9098
  29   2.0000      -0.876041       -23.8383
  30   2.0000      -0.855351       -23.2753
  31   2.0000      -0.668172       -18.1819
  32   2.0000      -0.667053       -18.1514
  33   2.0000      -0.607174       -16.5221
  34   2.0000      -0.560131       -15.2419
  35   2.0000      -0.520452       -14.1622
  36   2.0000      -0.519515       -14.1367
  37   2.0000      -0.402263       -10.9461
  38   2.0000      -0.400975       -10.9111
  39   2.0000      -0.380706       -10.3595
  40   2.0000      -0.365191        -9.9374
  41   2.0000      -0.364046        -9.9062
  42   2.0000      -0.359936        -9.7944
  43   2.0000      -0.359721        -9.7885
  44   2.0000      -0.353589        -9.6216
  45   2.0000      -0.292515        -7.9597
  46   0.0000      -0.003518        -0.0957
  47   0.0000       0.027546         0.7496
  48   0.0000       0.033487         0.9112
  49   0.0000       0.044043         1.1985
  50   0.0000       0.091668         2.4944

Dispersion correction            ...

MULLIKEN ATOMIC CHARGES
-----------------------
   0 C :   -0.286812
   1 N :   -0.307509
   2 H :    0.161606
   3 H :    0.161620
   4 H :    0.163719
   5 H :    0.290059
   6 H :    0.289943
   7 H :    0.292510
   8 Pb:    0.715244
   9 Cl:   -0.491090
  10 Cl:   -0.498403
  11 Cl:   -0.490887
Sum of atomic charges:    0.0000000

LOEWDIN ATOMIC CHARGES
----------------------
   0 C :   -0.287510
   1 N :    0.056003
   2 H :    0.127757
   3 H :    0.127821
   4 H :    0.128956
   5 H :    0.173142
   6 H :    0.146089
   7 H :    0.144729
   8 Pb:   -0.144778
   9 Cl:   -0.149746
  10 Cl:   -0.169303
  11 Cl:   -0.153161

  Mayer bond orders larger than 0.1
B(  0-C ,  1-N ) :   0.8911 B(  0-C ,  2-H ) :   0.9524 B(  0-C ,  3-H ) :   0.9516
B(  0-C ,  4-H ) :   0.9519 B(  1-N ,  5-H ) :   0.8189 B(  1-N ,  6-H ) :   0.7848
B(  1-N ,  7-H ) :   0.7836 B(  5-H , 11-Cl) :   0.1067 B(  6-H ,  9-Cl) :   0.1582
B(  7-H , 10-Cl) :   0.1624 B(  8-Pb,  9-Cl) :   0.6583 B(  8-Pb, 10-Cl) :   0.6409
B(  8-Pb, 11-Cl) :   0.6992

MP2 TOTAL ENERGY:    -1669.601193787 Eh
Dispersion correction           -0.014611251
FINAL SINGLE POINT ENERGY     -1669.615805037555

DIPOLE MOMENT
-------------
                                X             Y             Z
Electronic contribution:    -57.96679     -74.59557     -71.49679
Nuclear contribution   :     58.70968      75.57972      72.44798
                        -----------------------------------------
Total Dipole Moment    :      0.74289       0.98415       0.95119
                        -----------------------------------------
Magnitude (a.u.)       :      1.55730
Magnitude (Debye)      :      3.95835

                             ****ORCA TERMINATED NORMALLY****
TOTAL RUN TIME: 0 days 0 hours 12 minutes 0 seconds 86 msec
