                         Program Version 3.0.3 - RELEASE   -
|  1> ! RIJCOSX RI-B2PLYP D3BJ def2-TZVP ECP{def2-TZVP} TIGHTSCF Grid5 FinalGrid6 SlowConv MORead
|  2> %method
|  3>  RunTyp Gradient
|  4>  end
|  5> %maxcore 1000
|  6> %moinp "previous.gbw"
|  7> *xyz 0 1
|  8> C -0.972309 -0.086781 -1.068430
|  9> N -0.852621 -0.992690 0.119681
| 10> H -1.301400 -0.700870 0.848219
| 11> H 0.125724 -1.194750 0.464925
| 12> H -1.256140 -1.976770 -0.056578
| 13> H -0.737102 0.968694 -0.883871
| 14> H -1.907180 -0.178723 -1.631090
| 15> H -0.242529 -0.361781 -1.794900
| 16> Pb -3.072840 -2.646350 -2.485130
| 17> Cl -0.692641 -3.104970 -1.943900
| 18> Cl -3.390050 -0.430924 -3.492640
| 19> Cl -4.451000 -2.862150 -0.307764
| 20> *
| 21>
| 22>                          ****END OF INPUT****

CARTESIAN COORDINATES (ANGSTROEM)
---------------------------------
  C     -0.972309   -0.086781   -1.068430
  N     -0.852621   -0.992690    0.119681
  H     -1.301400   -0.700870    0.848219
  H      0.125724   -1.194750    0.464925
  H     -1.256140   -1.976770   -0.056578
  H     -0.737102    0.968694   -0.883871
  H     -1.907180   -0.178723   -1.631090
  H     -0.242529   -0.361781   -1.794900
  Pb    -3.072840   -2.646350   -2.485130
  Cl    -0.692641   -3.104970   -1.943900
  Cl    -3.390050   -0.430924   -3.492640
  Cl    -4.451000   -2.862150   -0.307764

 Total Charge           Charge          ....    0
 Multiplicity           Mult            ....    1
 Number of Electrons    NEL             ....   92
 Basis Dimension        Dim             ....  259

ORBITAL ENERGIES
----------------

  NO   OCC          E(Eh)            E(eV)
   0   2.0000    -102.859736     -2798.9557
   1   2.0000    -102.840751     -2798.4391
   2   2.0000    -102.826432     -2798.0495
   3   2.0000     -15.019094      -408.6903
   4   2.0000     -10.713657      -291.5334
   5   2.0000      -9.868680      -268.5404
   6   2.0000      -9.848974      -268.0042
   7   2.0000      -9.833102      -267.5723
   8   2.0000      -7.505453      -204.2338
   9   2.0000      -7.504056      -204.1958
  10   2.0000      -7.503674      -204.1853
  11   2.0000      -7.485957      -203.7032
  12   2.0000      -7.484187      -203.6551
  13   2.0000      -7.483990      -203.6497
  14   2.0000      -7.470137      -203.2728
  15   2.0000      -7.468517      -203.2287
  16   2.0000      -7.468231      -203.2209
  17   2.0000      -5.776737      -157.1930
  18   2.0000      -3.549034       -96.5741
  19   2.0000      -3.546998       -96.5187
  20   2.0000      -3.546203       -96.4971
  21   2.0000      -1.201242       -32.6875
  22   2.0000      -0.956288       -26.0219
  23   2.0000      -0.950712       -25.8702
  24   2.0000      -0.942494       -25.6466
  25   2.0000      -0.937399       -25.5079
  26   2.0000      -0.936397       -25.4807
  27   2.0000      -0.893020       -24.3003
  28   2.0000      -0.880797       -23.9677
  29   2.0000      -0.856821       -23.3153
  30   2.0000      -0.837620       -22.7928
  31   2.0000      -0.737476       -20.0677
  32   2.0000      -0.703477       -19.1426
  33   2.0000      -0.640333       -17.4243
  34   2.0000      -0.550032       -14.9671
  35   2.0000      -0.532508       -14.4903
  36   2.0000      -0.521577       -14.1928
  37   2.0000      -0.391924       -10.6648
  38   2.0000      -0.378167       -10.2904
  39   2.0000      -0.369298       -10.0491
  40   2.0000      -0.352162        -9.5828
  41   2.0000      -0.343522        -9.3477
  42   2.0000      -0.336978        -9.1696
  43   2.0000      -0.324302        -8.8247
  44   2.0000      -0.319452        -8.6927
  45   2.0000      -0.257111        -6.9963
  46   0.0000      -0.016212        -0.4411
  47   0.0000       0.001332         0.0363
  48   0.0000       0.049550         1.3483
  49   0.0000       0.057079         1.5532
  50   0.0000       0.062420         1.6985

Dispersion correction            ...

MULLIKEN ATOMIC CHARGES
-----------------------
   0 C :   -0.308465
   1 N :   -0.269995
   2 H :    0.249038
   3 H :    0.304994
   4 H :    0.313856
   5 H :    0.169769
   6 H :    0.192940
   7 H :    0.191664
   8 Pb:    0.741572
   9 Cl:   -0.540921
  10 Cl:   -0.498498
  11 Cl:   -0.545955
Sum of atomic charges:   -0.0000000

LOEWDIN ATOMIC CHARGES
----------------------
   0 C :   -0.301925
   1 N :    0.140792
   2 H :    0.136267
   3 H :    0.222863
   4 H :    0.211002
   5 H :    0.129618
   6 H :    0.121815
   7 H :    0.126394
   8 Pb:   -0.180666
   9 Cl:   -0.174765
  10 Cl:   -0.160304
  11 Cl:   -0.271091

  Mayer bond orders larger than 0.1
B(  0-C ,  1-N ) :   0.8418 B(  0-C ,  5-H ) :   0.9424 B(  0-C ,  6-H ) :   0.9009
B(  0-C ,  7-H ) :   0.9423 B(  1-N ,  2-H ) :   0.9100 B(  1-N ,  3-H ) :   0.8712
B(  1-N ,  4-H ) :   0.7936 B(  4-H ,  9-Cl) :   0.1061 B(  6-H , 10-Cl) :   0.1042
B(  8-Pb,  9-Cl) :   0.5649 B(  8-Pb, 10-Cl) :   0.7145 B(  8-Pb, 11-Cl) :   0.6868

MP2 TOTAL ENERGY:    -1669.553095797 Eh
Dispersion correction           -0.013768080
FINAL SINGLE POINT ENERGY     -1669.566863877383

DIPOLE MOMENT
-------------
                                X             Y             Z
Electronic contribution:    -49.89939     -61.52203     -62.41344
Nuclear contribution   :     52.77808      62.99673      64.45748
                        -----------------------------------------
Total Dipole Moment    :      2.87868       1.47470       2.04403
                        -----------------------------------------
Magnitude (a.u.)       :      3.82618
Magnitude (Debye)      :      9.72537

                             ****ORCA TERMINATED NORMALLY****
TOTAL RUN TIME: 0 days 0 hours 11 minutes 41 seconds 829 msec
