                         Program Version 3.0.3 - RELEASE   -
|  1> ! PW6B95 def2-TZVP GCP(DFT/TZ) ECP{def2-TZVP} Grid7 MORead
|  2> %pal nprocs 2 end
|  3> %method
|  4>  RunTyp Gradient
|  5>  end
|  6> %maxcore 2000
|  7> %moinp "previous.gbw"
|  8> *xyz -1 1
|  9> Pb 0.741736 0.399652 1.287127
| 10> Cl 1.976805 0.135687 -1.224275
| 11> Cl -1.293035 1.715163 0.124774
| 12> Cl 1.952286 2.574249 1.894733
| 13> *
| 14>
| 15>                          ****END OF INPUT****

CARTESIAN COORDINATES (ANGSTROEM)
---------------------------------
  Pb     0.741736    0.399652    1.287127
  Cl     1.976805    0.135687   -1.224275
  Cl    -1.293035    1.715163    0.124774
  Cl     1.952286    2.574249    1.894733

 Total Charge           Charge          ....   -1
 Multiplicity           Mult            ....    1
 Number of Electrons    NEL             ....   74
 Basis Dimension        Dim             ....  161

ORBITAL ENERGIES
----------------

  NO   OCC          E(Eh)            E(eV)
   0   2.0000    -101.726615     -2768.1219
   1   2.0000    -101.711248     -2767.7038
   2   2.0000    -101.699811     -2767.3925
   3   2.0000      -9.366960      -254.8879
   4   2.0000      -9.350945      -254.4522
   5   2.0000      -9.339110      -254.1301
   6   2.0000      -7.096809      -193.1140
   7   2.0000      -7.093834      -193.0330
   8   2.0000      -7.093744      -193.0306
   9   2.0000      -7.080892      -192.6809
  10   2.0000      -7.077842      -192.5979
  11   2.0000      -7.077788      -192.5964
  12   2.0000      -7.069038      -192.3583
  13   2.0000      -7.066060      -192.2773
  14   2.0000      -7.066038      -192.2767
  15   2.0000      -5.432406      -147.8233
  16   2.0000      -3.256494       -88.6137
  17   2.0000      -3.255680       -88.5916
  18   2.0000      -3.254566       -88.5612
  19   2.0000      -0.751035       -20.4367
  20   2.0000      -0.748180       -20.3590
  21   2.0000      -0.745576       -20.2882
  22   2.0000      -0.745095       -20.2751
  23   2.0000      -0.744124       -20.2487
  24   2.0000      -0.636108       -17.3094
  25   2.0000      -0.614359       -16.7176
  26   2.0000      -0.600710       -16.3462
  27   2.0000      -0.366271        -9.9667
  28   2.0000      -0.186331        -5.0703
  29   2.0000      -0.175351        -4.7715
  30   2.0000      -0.169153        -4.6029
  31   2.0000      -0.151548        -4.1238
  32   2.0000      -0.146519        -3.9870
  33   2.0000      -0.137813        -3.7501
  34   2.0000      -0.129290        -3.5182
  35   2.0000      -0.126241        -3.4352
  36   2.0000      -0.124691        -3.3930
  37   0.0000       0.092371         2.5135
  38   0.0000       0.100844         2.7441
  39   0.0000       0.109523         2.9803
  40   0.0000       0.225357         6.1323
  41   0.0000       0.231265         6.2930

MULLIKEN ATOMIC CHARGES
-----------------------
   0 Pb:    0.730328
   1 Cl:   -0.610235
   2 Cl:   -0.575848
   3 Cl:   -0.544245
Sum of atomic charges:   -1.0000000

LOEWDIN ATOMIC CHARGES
----------------------
   0 Pb:   -0.003736
   1 Cl:   -0.408789
   2 Cl:   -0.334287
   3 Cl:   -0.253188

  Mayer bond orders larger than 0.1
B(  0-Pb,  1-Cl) :   0.6582 B(  0-Pb,  2-Cl) :   0.7123 B(  0-Pb,  3-Cl) :   0.7634

FINAL SINGLE POINT ENERGY     -1574.923348881692

DIPOLE MOMENT
-------------
                                X             Y             Z
Electronic contribution:     -7.06500     -55.28140      53.05240
Nuclear contribution   :      6.79043      53.32114     -50.67678
                        -----------------------------------------
Total Dipole Moment    :     -0.27457      -1.96026       2.37562
                        -----------------------------------------
Magnitude (a.u.)       :      3.09218
Magnitude (Debye)      :      7.85970

                             ****ORCA TERMINATED NORMALLY****
TOTAL RUN TIME: 0 days 0 hours 8 minutes 35 seconds 955 msec
