                         Program Version 3.0.3 - RELEASE   -
|  1> ! RIJCOSX RI-B2PLYP D3BJ def2-TZVP ECP{def2-TZVP} TIGHTSCF Grid5 FinalGrid6 SlowConv MORead
|  2> %method
|  3>  RunTyp Gradient
|  4>  end
|  5> %maxcore 1000
|  6> %moinp "previous.gbw"
|  7> *xyz 0 1
|  8> C -0.394281 0.276013 -0.426662
|  9> N -1.165380 -0.685592 -1.253010
| 10> H 0.248796 -0.278576 0.260517
| 11> H -1.090820 0.897444 0.140826
| 12> H 0.215705 0.904875 -1.079130
| 13> H -1.783150 -1.324970 -0.698370
| 14> H -0.582260 -1.326300 -1.835140
| 15> H -1.813140 -0.240924 -1.938260
| 16> Pb -2.757730 -3.937420 -2.723380
| 17> Cl -1.356900 -3.274860 -4.777770
| 18> Cl -2.686020 1.254130 -2.860480
| 19> Cl -4.741620 -3.425430 -1.166610
| 20> *
| 21>
| 22>                          ****END OF INPUT****

CARTESIAN COORDINATES (ANGSTROEM)
---------------------------------
  C     -0.394281    0.276013   -0.426662
  N     -1.165380   -0.685592   -1.253010
  H      0.248796   -0.278576    0.260517
  H     -1.090820    0.897444    0.140826
  H      0.215705    0.904875   -1.079130
  H     -1.783150   -1.324970   -0.698370
  H     -0.582260   -1.326300   -1.835140
  H     -1.813140   -0.240924   -1.938260
  Pb    -2.757730   -3.937420   -2.723380
  Cl    -1.356900   -3.274860   -4.777770
  Cl    -2.686020    1.254130   -2.860480
  Cl    -4.741620   -3.425430   -1.166610

 Total Charge           Charge          ....    0
 Multiplicity           Mult            ....    1
 Number of Electrons    NEL             ....   92
 Basis Dimension        Dim             ....  259

ORBITAL ENERGIES
----------------

  NO   OCC          E(Eh)            E(eV)
   0   2.0000    -102.883413     -2799.6000
   1   2.0000    -102.882650     -2799.5792
   2   2.0000    -102.757610     -2796.1767
   3   2.0000     -14.989762      -407.8922
   4   2.0000     -10.713545      -291.5304
   5   2.0000      -9.889508      -269.1072
   6   2.0000      -9.888709      -269.0855
   7   2.0000      -9.763711      -265.6841
   8   2.0000      -7.526339      -204.8021
   9   2.0000      -7.525546      -204.7805
  10   2.0000      -7.525079      -204.7678
  11   2.0000      -7.524509      -204.7523
  12   2.0000      -7.524283      -204.7462
  13   2.0000      -7.523710      -204.7305
  14   2.0000      -7.400497      -201.3778
  15   2.0000      -7.399439      -201.3490
  16   2.0000      -7.399404      -201.3480
  17   2.0000      -5.876194      -159.8994
  18   2.0000      -3.651045       -99.3500
  19   2.0000      -3.647867       -99.2635
  20   2.0000      -3.641140       -99.0805
  21   2.0000      -1.159096       -31.5406
  22   2.0000      -1.041525       -28.3413
  23   2.0000      -1.039779       -28.2938
  24   2.0000      -1.036258       -28.1980
  25   2.0000      -1.033372       -28.1195
  26   2.0000      -1.031968       -28.0813
  27   2.0000      -0.895294       -24.3622
  28   2.0000      -0.894263       -24.3341
  29   2.0000      -0.869001       -23.6467
  30   2.0000      -0.777671       -21.1615
  31   2.0000      -0.689198       -18.7540
  32   2.0000      -0.673236       -18.3197
  33   2.0000      -0.613310       -16.6890
  34   2.0000      -0.602762       -16.4020
  35   2.0000      -0.523166       -14.2361
  36   2.0000      -0.522745       -14.2246
  37   2.0000      -0.424289       -11.5455
  38   2.0000      -0.381089       -10.3700
  39   2.0000      -0.379342       -10.3224
  40   2.0000      -0.369421       -10.0524
  41   2.0000      -0.368028       -10.0145
  42   2.0000      -0.327588        -8.9141
  43   2.0000      -0.270467        -7.3598
  44   2.0000      -0.258035        -7.0215
  45   2.0000      -0.257361        -7.0032
  46   0.0000      -0.120266        -3.2726
  47   0.0000      -0.093690        -2.5494
  48   0.0000       0.008978         0.2443
  49   0.0000       0.010748         0.2925
  50   0.0000       0.061860         1.6833

Dispersion correction            ...

MULLIKEN ATOMIC CHARGES
-----------------------
   0 C :   -0.251448
   1 N :   -0.297271
   2 H :    0.139250
   3 H :    0.178823
   4 H :    0.178764
   5 H :    0.267604
   6 H :    0.269942
   7 H :    0.246824
   8 Pb:    0.839329
   9 Cl:   -0.416858
  10 Cl:   -0.732902
  11 Cl:   -0.422057
Sum of atomic charges:   -0.0000000

LOEWDIN ATOMIC CHARGES
----------------------
   0 C :   -0.288489
   1 N :    0.091303
   2 H :    0.117677
   3 H :    0.136361
   4 H :    0.136195
   5 H :    0.195904
   6 H :    0.194904
   7 H :    0.108919
   8 Pb:    0.317263
   9 Cl:   -0.162403
  10 Cl:   -0.681073
  11 Cl:   -0.166559

  Mayer bond orders larger than 0.1
B(  0-C ,  1-N ) :   0.8750 B(  0-C ,  2-H ) :   0.9452 B(  0-C ,  3-H ) :   0.9452
B(  0-C ,  4-H ) :   0.9455 B(  1-N ,  5-H ) :   0.8770 B(  1-N ,  6-H ) :   0.8767
B(  1-N ,  7-H ) :   0.6650 B(  7-H , 10-Cl) :   0.4088 B(  8-Pb,  9-Cl) :   0.9151
B(  8-Pb, 11-Cl) :   0.9078

MP2 TOTAL ENERGY:    -1669.519860187 Eh
Dispersion correction           -0.009723571
FINAL SINGLE POINT ENERGY     -1669.529583757204

DIPOLE MOMENT
-------------
                                X             Y             Z
Electronic contribution:    -28.87972    -167.37935     -25.19940
Nuclear contribution   :     31.28943     164.17794      27.65709
                        -----------------------------------------
Total Dipole Moment    :      2.40970      -3.20142       2.45770
                        -----------------------------------------
Magnitude (a.u.)       :      4.70064
Magnitude (Debye)      :     11.94808

                             ****ORCA TERMINATED NORMALLY****
TOTAL RUN TIME: 0 days 0 hours 13 minutes 16 seconds 679 msec
