                         Program Version 3.0.3 - RELEASE   -
|  1> ! PW6B95 def2-TZVP GCP(DFT/TZ) ECP{def2-TZVP} Grid7 MORead
|  2> %pal nprocs 2 end
|  3> %method
|  4>  RunTyp Gradient
|  5>  end
|  6> %maxcore 2000
|  7> %moinp "previous.gbw"
|  8> *xyz 0 1
|  9> Pb 0.249181 0.438646 0.358755
| 10> Cl 2.703042 -0.409442 0.601561
| 11> Cl 1.172844 2.938707 -0.186370
| 12> Cl 0.084443 1.006670 2.920421
| 13> Cs 3.433981 4.090045 3.003166
| 14> *
| 15>
| 16>                          ****END OF INPUT****

CARTESIAN COORDINATES (ANGSTROEM)
---------------------------------
  Pb     0.249181    0.438646    0.358755
  Cl     2.703042   -0.409442    0.601561
  Cl     1.172844    2.938707   -0.186370
  Cl     0.084443    1.006670    2.920421
  Cs     3.433981    4.090045    3.003166

 Total Charge           Charge          ....    0
 Multiplicity           Mult            ....    1
 Number of Electrons    NEL             ....   82
 Basis Dimension        Dim             ....  190

ORBITAL ENERGIES
----------------

  NO   OCC          E(Eh)            E(eV)
   0   2.0000    -101.830574     -2770.9508
   1   2.0000    -101.829144     -2770.9119
   2   2.0000    -101.825004     -2770.7992
   3   2.0000      -9.470636      -257.7091
   4   2.0000      -9.468946      -257.6631
   5   2.0000      -9.465037      -257.5568
   6   2.0000      -7.200378      -195.9323
   7   2.0000      -7.198567      -195.8830
   8   2.0000      -7.197720      -195.8599
   9   2.0000      -7.197430      -195.8520
  10   2.0000      -7.196195      -195.8184
  11   2.0000      -7.195803      -195.8078
  12   2.0000      -7.194927      -195.7839
  13   2.0000      -7.191964      -195.7033
  14   2.0000      -7.191811      -195.6991
  15   2.0000      -5.537402      -150.6804
  16   2.0000      -3.361701       -91.4765
  17   2.0000      -3.360785       -91.4516
  18   2.0000      -3.359427       -91.4146
  19   2.0000      -1.135673       -30.9032
  20   2.0000      -0.855618       -23.2826
  21   2.0000      -0.855203       -23.2712
  22   2.0000      -0.851076       -23.1590
  23   2.0000      -0.850437       -23.1416
  24   2.0000      -0.849213       -23.1083
  25   2.0000      -0.744942       -20.2709
  26   2.0000      -0.729705       -19.8563
  27   2.0000      -0.725937       -19.7538
  28   2.0000      -0.605422       -16.4744
  29   2.0000      -0.604800       -16.4575
  30   2.0000      -0.601259       -16.3611
  31   2.0000      -0.473469       -12.8837
  32   2.0000      -0.295192        -8.0326
  33   2.0000      -0.292446        -7.9579
  34   2.0000      -0.282398        -7.6844
  35   2.0000      -0.266091        -7.2407
  36   2.0000      -0.264550        -7.1988
  37   2.0000      -0.251972        -6.8565
  38   2.0000      -0.248331        -6.7574
  39   2.0000      -0.246553        -6.7090
  40   2.0000      -0.242411        -6.5963
  41   0.0000      -0.072139        -1.9630
  42   0.0000      -0.021536        -0.5860
  43   0.0000      -0.021364        -0.5813
  44   0.0000      -0.019732        -0.5369
  45   0.0000      -0.012207        -0.3322

MULLIKEN ATOMIC CHARGES
-----------------------
   0 Pb:    0.791409
   1 Cl:   -0.527443
   2 Cl:   -0.579145
   3 Cl:   -0.547784
   4 Cs:    0.862963
Sum of atomic charges:   -0.0000000

LOEWDIN ATOMIC CHARGES
----------------------
   0 Pb:    0.108037
   1 Cl:   -0.236435
   2 Cl:   -0.278496
   3 Cl:   -0.242935
   4 Cs:    0.649829

  Mayer bond orders larger than 0.1
B(  0-Pb,  1-Cl) :   0.7475 B(  0-Pb,  2-Cl) :   0.5893 B(  0-Pb,  3-Cl) :   0.6856
B(  2-Cl,  4-Cs) :   0.1347

FINAL SINGLE POINT ENERGY     -1595.047739515223

DIPOLE MOMENT
-------------
                                X             Y             Z
Electronic contribution:     31.59183      66.21238      34.70083
Nuclear contribution   :    -29.06540     -62.33067     -32.22636
                        -----------------------------------------
Total Dipole Moment    :      2.52644       3.88171       2.47447
                        -----------------------------------------
Magnitude (a.u.)       :      5.25106
Magnitude (Debye)      :     13.34713

                             ****ORCA TERMINATED NORMALLY****
TOTAL RUN TIME: 0 days 0 hours 12 minutes 36 seconds 33 msec
