                         Program Version 3.0.3 - RELEASE   -
|  1> ! PW6B95 def2-TZVP GCP(DFT/TZ) ECP{def2-TZVP} Grid7 MORead
|  2> %pal nprocs 2 end
|  3> %method
|  4>  RunTyp Gradient
|  5>  end
|  6> %maxcore 2000
|  7> %moinp "previous.gbw"
|  8> *xyz 0 1
|  9> Pb 0.425524 0.234920 0.649885
| 10> Cl 2.659135 0.903173 -0.521629
| 11> Cl -0.678535 2.528235 -0.091366
| 12> Cl 1.161592 1.193124 2.916910
| 13> Cs 3.701214 4.432360 3.219490
| 14> *
| 15>
| 16>                          ****END OF INPUT****

CARTESIAN COORDINATES (ANGSTROEM)
---------------------------------
  Pb     0.425524    0.234920    0.649885
  Cl     2.659135    0.903173   -0.521629
  Cl    -0.678535    2.528235   -0.091366
  Cl     1.161592    1.193124    2.916910
  Cs     3.701214    4.432360    3.219490

 Total Charge           Charge          ....    0
 Multiplicity           Mult            ....    1
 Number of Electrons    NEL             ....   82
 Basis Dimension        Dim             ....  190

ORBITAL ENERGIES
----------------

  NO   OCC          E(Eh)            E(eV)
   0   2.0000    -101.837058     -2771.1272
   1   2.0000    -101.816222     -2770.5602
   2   2.0000    -101.806636     -2770.2994
   3   2.0000      -9.477748      -257.9026
   4   2.0000      -9.456376      -257.3211
   5   2.0000      -9.446506      -257.0525
   6   2.0000      -7.207345      -196.1218
   7   2.0000      -7.204832      -196.0534
   8   2.0000      -7.204580      -196.0466
   9   2.0000      -7.186178      -195.5458
  10   2.0000      -7.183376      -195.4696
  11   2.0000      -7.183159      -195.4637
  12   2.0000      -7.176417      -195.2802
  13   2.0000      -7.173440      -195.1992
  14   2.0000      -7.173303      -195.1955
  15   2.0000      -5.522854      -150.2845
  16   2.0000      -3.346977       -91.0759
  17   2.0000      -3.346452       -91.0616
  18   2.0000      -3.344998       -91.0220
  19   2.0000      -1.150189       -31.2982
  20   2.0000      -0.844647       -22.9840
  21   2.0000      -0.840966       -22.8838
  22   2.0000      -0.836910       -22.7735
  23   2.0000      -0.836295       -22.7567
  24   2.0000      -0.835055       -22.7230
  25   2.0000      -0.748059       -20.3557
  26   2.0000      -0.722118       -19.6498
  27   2.0000      -0.708755       -19.2862
  28   2.0000      -0.619648       -16.8615
  29   2.0000      -0.619312       -16.8523
  30   2.0000      -0.615857       -16.7583
  31   2.0000      -0.463761       -12.6196
  32   2.0000      -0.298047        -8.1103
  33   2.0000      -0.285192        -7.7605
  34   2.0000      -0.281177        -7.6512
  35   2.0000      -0.262560        -7.1446
  36   2.0000      -0.255414        -6.9502
  37   2.0000      -0.245124        -6.6702
  38   2.0000      -0.235307        -6.4030
  39   2.0000      -0.230500        -6.2722
  40   2.0000      -0.227639        -6.1944
  41   0.0000      -0.081916        -2.2291
  42   0.0000      -0.028774        -0.7830
  43   0.0000      -0.028055        -0.7634
  44   0.0000      -0.027614        -0.7514
  45   0.0000      -0.019873        -0.5408

MULLIKEN ATOMIC CHARGES
-----------------------
   0 Pb:    0.779675
   1 Cl:   -0.548291
   2 Cl:   -0.548520
   3 Cl:   -0.569473
   4 Cs:    0.886610
Sum of atomic charges:   -0.0000000

LOEWDIN ATOMIC CHARGES
----------------------
   0 Pb:    0.023993
   1 Cl:   -0.253706
   2 Cl:   -0.281908
   3 Cl:   -0.207349
   4 Cs:    0.718970

  Mayer bond orders larger than 0.1
B(  0-Pb,  1-Cl) :   0.7107 B(  0-Pb,  2-Cl) :   0.7262 B(  0-Pb,  3-Cl) :   0.6136
B(  3-Cl,  4-Cs) :   0.1265

FINAL SINGLE POINT ENERGY     -1595.036705859948

DIPOLE MOMENT
-------------
                                X             Y             Z
Electronic contribution:     62.38966      48.30598      71.83691
Nuclear contribution   :    -58.41359     -44.54160     -67.80757
                        -----------------------------------------
Total Dipole Moment    :      3.97607       3.76438       4.02934
                        -----------------------------------------
Magnitude (a.u.)       :      6.79818
Magnitude (Debye)      :     17.27960

                             ****ORCA TERMINATED NORMALLY****
TOTAL RUN TIME: 0 days 0 hours 12 minutes 32 seconds 519 msec
