                         Program Version 3.0.3 - RELEASE   -
|  1> ! RIJCOSX RI-B2PLYP D3BJ def2-TZVP ECP{def2-TZVP} TIGHTSCF Grid5 FinalGrid6 SlowConv MORead
|  2> %method
|  3>  RunTyp Gradient
|  4>  end
|  5> %maxcore 1000
|  6> %moinp "previous.gbw"
|  7> *xyz 0 1
|  8> C -1.385110 -0.752771 0.175738
|  9> N -1.463220 -0.108927 -1.188010
| 10> H -0.876222 -0.618127 -1.689150
| 11> H -1.088550 0.840649 -1.082030
| 12> H -2.426840 0.034223 -1.638530
| 13> H -0.317637 -0.752681 0.317252
| 14> H -1.769740 -1.771640 0.185047
| 15> H -1.908030 -0.212500 0.971785
| 16> Pb -3.037870 -2.643230 -2.432890
| 17> Cl -0.779700 -3.475570 -1.930650
| 18> Cl -2.989410 -0.472532 -3.612720
| 19> Cl -4.500540 -2.619200 -0.414598
| 20> *
| 21>
| 22>                          ****END OF INPUT****

CARTESIAN COORDINATES (ANGSTROEM)
---------------------------------
  C     -1.385110   -0.752771    0.175738
  N     -1.463220   -0.108927   -1.188010
  H     -0.876222   -0.618127   -1.689150
  H     -1.088550    0.840649   -1.082030
  H     -2.426840    0.034223   -1.638530
  H     -0.317637   -0.752681    0.317252
  H     -1.769740   -1.771640    0.185047
  H     -1.908030   -0.212500    0.971785
  Pb    -3.037870   -2.643230   -2.432890
  Cl    -0.779700   -3.475570   -1.930650
  Cl    -2.989410   -0.472532   -3.612720
  Cl    -4.500540   -2.619200   -0.414598

 Total Charge           Charge          ....    0
 Multiplicity           Mult            ....    1
 Number of Electrons    NEL             ....   92
 Basis Dimension        Dim             ....  259

ORBITAL ENERGIES
----------------

  NO   OCC          E(Eh)            E(eV)
   0   2.0000    -102.861069     -2798.9920
   1   2.0000    -102.849157     -2798.6678
   2   2.0000    -102.836079     -2798.3120
   3   2.0000     -15.008476      -408.4014
   4   2.0000     -10.721954      -291.7592
   5   2.0000      -9.870232      -268.5827
   6   2.0000      -9.857276      -268.2301
   7   2.0000      -9.843701      -267.8607
   8   2.0000      -7.506918      -204.2736
   9   2.0000      -7.505597      -204.2377
  10   2.0000      -7.505192      -204.2267
  11   2.0000      -7.494167      -203.9267
  12   2.0000      -7.492556      -203.8828
  13   2.0000      -7.492316      -203.8763
  14   2.0000      -7.480695      -203.5601
  15   2.0000      -7.478938      -203.5123
  16   2.0000      -7.478792      -203.5083
  17   2.0000      -5.780193      -157.2870
  18   2.0000      -3.553039       -96.6831
  19   2.0000      -3.550260       -96.6075
  20   2.0000      -3.549597       -96.5894
  21   2.0000      -1.198593       -32.6154
  22   2.0000      -0.961279       -26.1577
  23   2.0000      -0.955804       -26.0088
  24   2.0000      -0.949638       -25.8410
  25   2.0000      -0.941961       -25.6321
  26   2.0000      -0.940964       -25.6049
  27   2.0000      -0.891489       -24.2586
  28   2.0000      -0.879818       -23.9411
  29   2.0000      -0.862217       -23.4621
  30   2.0000      -0.848771       -23.0962
  31   2.0000      -0.751467       -20.4484
  32   2.0000      -0.711194       -19.3526
  33   2.0000      -0.616363       -16.7721
  34   2.0000      -0.551895       -15.0178
  35   2.0000      -0.546338       -14.8666
  36   2.0000      -0.533816       -14.5259
  37   2.0000      -0.396973       -10.8022
  38   2.0000      -0.387748       -10.5512
  39   2.0000      -0.373098       -10.1525
  40   2.0000      -0.357591        -9.7305
  41   2.0000      -0.353277        -9.6132
  42   2.0000      -0.345746        -9.4082
  43   2.0000      -0.336269        -9.1503
  44   2.0000      -0.331273        -9.0144
  45   2.0000      -0.253690        -6.9033
  46   0.0000      -0.019703        -0.5361
  47   0.0000       0.006429         0.1750
  48   0.0000       0.054657         1.4873
  49   0.0000       0.056594         1.5400
  50   0.0000       0.071634         1.9493

Dispersion correction            ...

MULLIKEN ATOMIC CHARGES
-----------------------
   0 C :   -0.305663
   1 N :   -0.276447
   2 H :    0.272636
   3 H :    0.289728
   4 H :    0.312764
   5 H :    0.151767
   6 H :    0.216090
   7 H :    0.171117
   8 Pb:    0.704336
   9 Cl:   -0.506363
  10 Cl:   -0.519302
  11 Cl:   -0.510663
Sum of atomic charges:   -0.0000000

LOEWDIN ATOMIC CHARGES
----------------------
   0 C :   -0.278576
   1 N :    0.127084
   2 H :    0.145879
   3 H :    0.209068
   4 H :    0.189171
   5 H :    0.125356
   6 H :    0.131658
   7 H :    0.129788
   8 Pb:   -0.239473
   9 Cl:   -0.175523
  10 Cl:   -0.166340
  11 Cl:   -0.198093

  Mayer bond orders larger than 0.1
B(  0-C ,  1-N ) :   0.8584 B(  0-C ,  5-H ) :   0.9410 B(  0-C ,  6-H ) :   0.9259
B(  0-C ,  7-H ) :   0.9443 B(  1-N ,  2-H ) :   0.8880 B(  1-N ,  3-H ) :   0.8815
B(  1-N ,  4-H ) :   0.7674 B(  4-H , 10-Cl) :   0.1532 B(  8-Pb,  9-Cl) :   0.6959
B(  8-Pb, 10-Cl) :   0.5821 B(  8-Pb, 11-Cl) :   0.7289

MP2 TOTAL ENERGY:    -1669.553006697 Eh
Dispersion correction           -0.014390746
FINAL SINGLE POINT ENERGY     -1669.567397442973

DIPOLE MOMENT
-------------
                                X             Y             Z
Electronic contribution:    -42.45193     -61.12095     -55.71930
Nuclear contribution   :     44.15682      63.65153      56.79893
                        -----------------------------------------
Total Dipole Moment    :      1.70488       2.53058       1.07964
                        -----------------------------------------
Magnitude (a.u.)       :      3.23668
Magnitude (Debye)      :      8.22699

                             ****ORCA TERMINATED NORMALLY****
TOTAL RUN TIME: 0 days 0 hours 13 minutes 34 seconds 612 msec
