                         Program Version 3.0.3 - RELEASE   -
|  1> ! RIJCOSX RI-B2PLYP D3BJ def2-TZVP ECP{def2-TZVP} TIGHTSCF Grid5 FinalGrid6 SlowConv MORead
|  2> %method
|  3>  RunTyp Gradient
|  4>  end
|  5> %maxcore 1000
|  6> %moinp "previous.gbw"
|  7> *xyz 0 1
|  8> C -0.279328 -0.384649 -0.079983
|  9> N -1.048630 -0.036056 -1.324620
| 10> H -2.118620 -0.350815 -1.320720
| 11> H -0.560575 -0.320617 -2.166160
| 12> H -1.199600 0.863657 -1.397080
| 13> H -0.432378 -1.373820 0.423337
| 14> H -0.608116 0.165129 0.791476
| 15> H 0.817980 -0.276366 -0.251427
| 16> Pb -3.147950 -2.595970 -2.465570
| 17> Cl -0.664799 -3.307300 -2.463930
| 18> Cl -3.391660 -0.192978 -2.657970
| 19> Cl -4.230100 -3.530730 -0.476244
| 20> *
| 21>
| 22>                          ****END OF INPUT****

CARTESIAN COORDINATES (ANGSTROEM)
---------------------------------
  C     -0.279328   -0.384649   -0.079983
  N     -1.048630   -0.036056   -1.324620
  H     -2.118620   -0.350815   -1.320720
  H     -0.560575   -0.320617   -2.166160
  H     -1.199600    0.863657   -1.397080
  H     -0.432378   -1.373820    0.423337
  H     -0.608116    0.165129    0.791476
  H      0.817980   -0.276366   -0.251427
  Pb    -3.147950   -2.595970   -2.465570
  Cl    -0.664799   -3.307300   -2.463930
  Cl    -3.391660   -0.192978   -2.657970
  Cl    -4.230100   -3.530730   -0.476244

 Total Charge           Charge          ....    0
 Multiplicity           Mult            ....    1
 Number of Electrons    NEL             ....   92
 Basis Dimension        Dim             ....  259

ORBITAL ENERGIES
----------------

  NO   OCC          E(Eh)            E(eV)
   0   2.0000    -102.880727     -2799.5269
   1   2.0000    -102.833989     -2798.2551
   2   2.0000    -102.833463     -2798.2408
   3   2.0000     -14.993507      -407.9941
   4   2.0000     -10.725561      -291.8574
   5   2.0000      -9.891394      -269.1585
   6   2.0000      -9.841638      -267.8046
   7   2.0000      -9.840411      -267.7712
   8   2.0000      -7.527939      -204.8456
   9   2.0000      -7.526773      -204.8139
  10   2.0000      -7.526067      -204.7947
  11   2.0000      -7.478756      -203.5073
  12   2.0000      -7.477384      -203.4700
  13   2.0000      -7.476787      -203.4537
  14   2.0000      -7.476640      -203.4497
  15   2.0000      -7.475794      -203.4267
  16   2.0000      -7.475607      -203.4216
  17   2.0000      -5.780064      -157.2835
  18   2.0000      -3.552869       -96.6785
  19   2.0000      -3.550450       -96.6127
  20   2.0000      -3.549194       -96.5785
  21   2.0000      -1.185916       -32.2704
  22   2.0000      -0.972074       -26.4515
  23   2.0000      -0.953394       -25.9432
  24   2.0000      -0.946674       -25.7603
  25   2.0000      -0.942029       -25.6339
  26   2.0000      -0.939734       -25.5715
  27   2.0000      -0.907054       -24.6822
  28   2.0000      -0.877078       -23.8665
  29   2.0000      -0.854024       -23.2392
  30   2.0000      -0.842110       -22.9150
  31   2.0000      -0.727442       -19.7947
  32   2.0000      -0.689211       -18.7544
  33   2.0000      -0.633986       -17.2516
  34   2.0000      -0.553217       -15.0538
  35   2.0000      -0.544738       -14.8231
  36   2.0000      -0.502214       -13.6659
  37   2.0000      -0.405261       -11.0277
  38   2.0000      -0.395969       -10.7749
  39   2.0000      -0.388495       -10.5715
  40   2.0000      -0.359763        -9.7897
  41   2.0000      -0.339938        -9.2502
  42   2.0000      -0.333475        -9.0743
  43   2.0000      -0.329520        -8.9667
  44   2.0000      -0.323679        -8.8078
  45   2.0000      -0.257088        -6.9957
  46   0.0000      -0.013740        -0.3739
  47   0.0000       0.014969         0.4073
  48   0.0000       0.048156         1.3104
  49   0.0000       0.049003         1.3334
  50   0.0000       0.067478         1.8362

Dispersion correction            ...

MULLIKEN ATOMIC CHARGES
-----------------------
   0 C :   -0.312510
   1 N :   -0.262737
   2 H :    0.303415
   3 H :    0.303947
   4 H :    0.240422
   5 H :    0.202847
   6 H :    0.165547
   7 H :    0.164210
   8 Pb:    0.732204
   9 Cl:   -0.551571
  10 Cl:   -0.494582
  11 Cl:   -0.491192
Sum of atomic charges:   -0.0000000

LOEWDIN ATOMIC CHARGES
----------------------
   0 C :   -0.301997
   1 N :    0.102900
   2 H :    0.174664
   3 H :    0.198261
   4 H :    0.135313
   5 H :    0.149052
   6 H :    0.125414
   7 H :    0.134301
   8 Pb:   -0.205350
   9 Cl:   -0.269029
  10 Cl:   -0.086570
  11 Cl:   -0.156960

  Mayer bond orders larger than 0.1
B(  0-C ,  1-N ) :   0.8823 B(  0-C ,  5-H ) :   0.9389 B(  0-C ,  6-H ) :   0.9462
B(  0-C ,  7-H ) :   0.9472 B(  1-N ,  2-H ) :   0.7154 B(  1-N ,  3-H ) :   0.8631
B(  1-N ,  4-H ) :   0.9154 B(  2-H , 10-Cl) :   0.2250 B(  8-Pb,  9-Cl) :   0.6489
B(  8-Pb, 10-Cl) :   0.5314 B(  8-Pb, 11-Cl) :   0.8080

MP2 TOTAL ENERGY:    -1669.537911575 Eh
Dispersion correction           -0.012971478
FINAL SINGLE POINT ENERGY     -1669.550883053672

DIPOLE MOMENT
-------------
                                X             Y             Z
Electronic contribution:    -63.34781     -54.99271     -59.85664
Nuclear contribution   :     65.15762      58.10531      60.42804
                        -----------------------------------------
Total Dipole Moment    :      1.80981       3.11259       0.57139
                        -----------------------------------------
Magnitude (a.u.)       :      3.64556
Magnitude (Debye)      :      9.26629

                             ****ORCA TERMINATED NORMALLY****
TOTAL RUN TIME: 0 days 0 hours 15 minutes 24 seconds 779 msec
