                         Program Version 3.0.3 - RELEASE   -
|  1> ! RIJCOSX RI-B2PLYP D3BJ def2-TZVP ECP{def2-TZVP} TIGHTSCF Grid5 FinalGrid6 SlowConv MORead
|  2> %method
|  3>  RunTyp Gradient
|  4>  end
|  5> %maxcore 1000
|  6> %moinp "previous.gbw"
|  7> *xyz 0 1
|  8> C -1.578450 0.495269 -0.311252
|  9> N -2.936890 0.725485 -0.680071
| 10> H -3.391900 -0.111477 -0.220958
| 11> H -2.976600 0.526799 -1.655590
| 12> H -3.260810 1.594880 -0.441148
| 13> H -1.294960 -0.444083 -0.807128
| 14> H -1.449430 0.516402 0.773582
| 15> H -0.845942 1.075250 -0.879260
| 16> Pb -2.909370 -2.656850 -2.331330
| 17> Cl -1.355360 -4.460870 -2.750550
| 18> Cl -2.339330 -0.494115 -3.357110
| 19> Cl -4.540780 -2.445900 -0.471451
| 20> *
| 21>
| 22>                          ****END OF INPUT****

CARTESIAN COORDINATES (ANGSTROEM)
---------------------------------
  C     -1.578450    0.495269   -0.311252
  N     -2.936890    0.725485   -0.680071
  H     -3.391900   -0.111477   -0.220958
  H     -2.976600    0.526799   -1.655590
  H     -3.260810    1.594880   -0.441148
  H     -1.294960   -0.444083   -0.807128
  H     -1.449430    0.516402    0.773582
  H     -0.845942    1.075250   -0.879260
  Pb    -2.909370   -2.656850   -2.331330
  Cl    -1.355360   -4.460870   -2.750550
  Cl    -2.339330   -0.494115   -3.357110
  Cl    -4.540780   -2.445900   -0.471451

 Total Charge           Charge          ....    0
 Multiplicity           Mult            ....    1
 Number of Electrons    NEL             ....   92
 Basis Dimension        Dim             ....  259

ORBITAL ENERGIES
----------------

  NO   OCC          E(Eh)            E(eV)
   0   2.0000    -102.860290     -2798.9708
   1   2.0000    -102.838987     -2798.3911
   2   2.0000    -102.821068     -2797.9035
   3   2.0000     -15.006676      -408.3524
   4   2.0000     -10.725508      -291.8559
   5   2.0000      -9.869961      -268.5753
   6   2.0000      -9.847494      -267.9639
   7   2.0000      -9.829657      -267.4786
   8   2.0000      -7.506244      -204.2553
   9   2.0000      -7.505507      -204.2352
  10   2.0000      -7.505029      -204.2222
  11   2.0000      -7.483771      -203.6438
  12   2.0000      -7.483125      -203.6262
  13   2.0000      -7.482637      -203.6129
  14   2.0000      -7.466209      -203.1659
  15   2.0000      -7.465063      -203.1347
  16   2.0000      -7.464695      -203.1247
  17   2.0000      -5.777057      -157.2017
  18   2.0000      -3.551072       -96.6296
  19   2.0000      -3.547458       -96.5312
  20   2.0000      -3.545501       -96.4780
  21   2.0000      -1.215890       -33.0861
  22   2.0000      -0.958230       -26.0748
  23   2.0000      -0.952860       -25.9286
  24   2.0000      -0.948974       -25.8229
  25   2.0000      -0.940703       -25.5978
  26   2.0000      -0.939672       -25.5698
  27   2.0000      -0.887599       -24.1528
  28   2.0000      -0.886684       -24.1279
  29   2.0000      -0.857336       -23.3293
  30   2.0000      -0.840317       -22.8662
  31   2.0000      -0.763125       -20.7657
  32   2.0000      -0.727191       -19.7879
  33   2.0000      -0.633488       -17.2381
  34   2.0000      -0.561968       -15.2919
  35   2.0000      -0.548172       -14.9165
  36   2.0000      -0.510479       -13.8908
  37   2.0000      -0.395836       -10.7712
  38   2.0000      -0.390260       -10.6195
  39   2.0000      -0.373555       -10.1649
  40   2.0000      -0.360690        -9.8149
  41   2.0000      -0.347596        -9.4586
  42   2.0000      -0.340149        -9.2559
  43   2.0000      -0.324054        -8.8180
  44   2.0000      -0.320467        -8.7204
  45   2.0000      -0.230143        -6.2625
  46   0.0000      -0.033933        -0.9234
  47   0.0000       0.003588         0.0976
  48   0.0000       0.055743         1.5168
  49   0.0000       0.057608         1.5676
  50   0.0000       0.075307         2.0492

Dispersion correction            ...

MULLIKEN ATOMIC CHARGES
-----------------------
   0 C :   -0.338384
   1 N :   -0.228046
   2 H :    0.292429
   3 H :    0.267538
   4 H :    0.269766
   5 H :    0.179990
   6 H :    0.168813
   7 H :    0.181699
   8 Pb:    0.754570
   9 Cl:   -0.492805
  10 Cl:   -0.520785
  11 Cl:   -0.534785
Sum of atomic charges:   -0.0000000

LOEWDIN ATOMIC CHARGES
----------------------
   0 C :   -0.333391
   1 N :    0.152795
   2 H :    0.216978
   3 H :    0.143076
   4 H :    0.172772
   5 H :    0.137793
   6 H :    0.129135
   7 H :    0.136113
   8 Pb:   -0.215418
   9 Cl:   -0.149259
  10 Cl:   -0.162849
  11 Cl:   -0.227745

  Mayer bond orders larger than 0.1
B(  0-C ,  1-N ) :   0.8962 B(  0-C ,  5-H ) :   0.9423 B(  0-C ,  6-H ) :   0.9392
B(  0-C ,  7-H ) :   0.9526 B(  1-N ,  2-H ) :   0.8078 B(  1-N ,  3-H ) :   0.7933
B(  1-N ,  4-H ) :   0.8907 B(  2-H , 11-Cl) :   0.1511 B(  3-H , 10-Cl) :   0.2110
B(  8-Pb,  9-Cl) :   0.8113 B(  8-Pb, 10-Cl) :   0.5188 B(  8-Pb, 11-Cl) :   0.6000

MP2 TOTAL ENERGY:    -1669.533216859 Eh
Dispersion correction           -0.013068184
FINAL SINGLE POINT ENERGY     -1669.546285043741

DIPOLE MOMENT
-------------
                                X             Y             Z
Electronic contribution:    -19.70369     -68.11200     -39.84953
Nuclear contribution   :     19.77789      72.15573      41.71190
                        -----------------------------------------
Total Dipole Moment    :      0.07420       4.04373       1.86237
                        -----------------------------------------
Magnitude (a.u.)       :      4.45260
Magnitude (Debye)      :     11.31762

                             ****ORCA TERMINATED NORMALLY****
TOTAL RUN TIME: 0 days 0 hours 16 minutes 10 seconds 982 msec
