                         Program Version 3.0.3 - RELEASE   -
|  1> ! RIJCOSX RI-B2PLYP D3BJ def2-TZVP ECP{def2-TZVP} TIGHTSCF Grid5 FinalGrid6 MORead
|  2> %maxcore 4000
|  3> %moinp "previous.gbw"
|  4> *xyz -1 1
|  5> C 3.321334 3.304660 2.430157
|  6> N 2.356571 2.328752 1.891132
|  7> H 3.929482 2.825089 3.202898
|  8> H 2.779051 4.148026 2.867131
|  9> H 3.970752 3.667461 1.628343
| 10> H 1.712427 1.919960 2.626954
| 11> H 2.798301 1.476145 1.466883
| 12> H 1.726191 2.717573 1.143366
| 13> Pb 0.007453 -0.193078 0.717151
| 14> Cl 2.761571 -0.540516 0.818873
| 15> Cl 0.249956 2.913658 -0.283651
| 16> Cl 0.356063 0.651087 3.491133
| 17> Cl -3.321404 -0.293700 -0.024976
| 18> Cl 0.026529 -1.161053 -2.196866
| 19> Cl -0.571076 -2.753744 1.834521
| 20> N -2.185808 -3.054212 -0.959335
| 21> C -3.018599 -3.892984 -1.852407
| 22> H -2.697680 -2.199715 -0.614166
| 23> H -1.345672 -2.675212 -1.453465
| 24> H -3.863008 -4.284793 -1.282203
| 25> H -2.403708 -4.719219 -2.215644
| 26> H -3.366846 -3.277457 -2.686457
| 27> H -1.855008 -3.591944 -0.148281
| 28> Cl 3.311814 -4.829725 1.507621
| 29> Cl 1.009982 -5.235898 4.871371
| 30> Pb 0.322287 -5.480586 1.497383
| 31> N 2.161285 -2.658962 3.515767
| 32> C 3.006676 -1.740565 4.311813
| 33> H 2.698023 -3.156655 2.770259
| 34> H 1.390718 -2.163400 3.045648
| 35> H 3.799912 -2.319606 4.793333
| 36> H 2.384520 -1.246095 5.060700
| 37> H 3.427402 -0.991699 3.638613
| 38> H 1.731703 -3.427574 4.095222
| 39> Cl 0.341688 -5.426955 -1.288305
| 40> H -2.444419 -8.567556 -2.232135
| 41> H -0.598109 -7.323819 -1.165277
| 42> H -1.004862 -9.612620 -2.073837
| 43> C -1.775778 -9.065444 -1.523604
| 44> N -1.147567 -8.055720 -0.651573
| 45> Cl -2.541954 -5.971637 1.080241
| 46> H -1.842497 -7.478800 -0.094428
| 47> H -0.483324 -8.457680 0.056334
| 48> H -2.352281 -9.766255 -0.913124
| 49> Cl 0.883396 -8.618335 1.604477
| 50> H -3.020852 1.137851 -3.759427
| 51> H -2.443836 0.935457 -1.388789
| 52> C -2.421148 1.915242 -3.276964
| 53> H -3.072919 2.741318 -2.978333
| 54> N -1.760461 1.345922 -2.088558
| 55> H -1.130632 0.530708 -2.323343
| 56> H -1.666594 2.281032 -3.979276
| 57> H -1.165922 2.035435 -1.571092
| 58> H 3.622704 -8.508951 4.939340
| 59> H 2.344608 -7.817453 2.937850
| 60> C 4.032137 -7.791101 4.222778
| 61> H 4.696529 -8.309487 3.525223
| 62> N 2.932785 -7.146076 3.481813
| 63> H 2.277052 -6.592786 4.110347
| 64> H 4.597499 -7.025510 4.762093
| 65> H 3.269849 -6.425562 2.787786
| 66> *
| 67>
| 68>                          ****END OF INPUT****

CARTESIAN COORDINATES (ANGSTROEM)
---------------------------------
  C      3.321334    3.304660    2.430157
  N      2.356571    2.328752    1.891132
  H      3.929482    2.825089    3.202898
  H      2.779051    4.148026    2.867131
  H      3.970752    3.667461    1.628343
  H      1.712427    1.919960    2.626954
  H      2.798301    1.476145    1.466883
  H      1.726191    2.717573    1.143366
  Pb     0.007453   -0.193078    0.717151
  Cl     2.761571   -0.540516    0.818873
  Cl     0.249956    2.913658   -0.283651
  Cl     0.356063    0.651087    3.491133
  Cl    -3.321404   -0.293700   -0.024976
  Cl     0.026529   -1.161053   -2.196866
  Cl    -0.571076   -2.753744    1.834521
  N     -2.185808   -3.054212   -0.959335
  C     -3.018599   -3.892984   -1.852407
  H     -2.697680   -2.199715   -0.614166
  H     -1.345672   -2.675212   -1.453465
  H     -3.863008   -4.284793   -1.282203
  H     -2.403708   -4.719219   -2.215644
  H     -3.366846   -3.277457   -2.686457
  H     -1.855008   -3.591944   -0.148281
  Cl     3.311814   -4.829725    1.507621
  Cl     1.009982   -5.235898    4.871371
  Pb     0.322287   -5.480586    1.497383
  N      2.161285   -2.658962    3.515767
  C      3.006676   -1.740565    4.311813
  H      2.698023   -3.156655    2.770259
  H      1.390718   -2.163400    3.045648
  H      3.799912   -2.319606    4.793333
  H      2.384520   -1.246095    5.060700
  H      3.427402   -0.991699    3.638613
  H      1.731703   -3.427574    4.095222
  Cl     0.341688   -5.426955   -1.288305
  H     -2.444419   -8.567556   -2.232135
  H     -0.598109   -7.323819   -1.165277
  H     -1.004862   -9.612620   -2.073837
  C     -1.775778   -9.065444   -1.523604
  N     -1.147567   -8.055720   -0.651573
  Cl    -2.541954   -5.971637    1.080241
  H     -1.842497   -7.478800   -0.094428
  H     -0.483324   -8.457680    0.056334
  H     -2.352281   -9.766255   -0.913124
  Cl     0.883396   -8.618335    1.604477
  H     -3.020852    1.137851   -3.759427
  H     -2.443836    0.935457   -1.388789
  C     -2.421148    1.915242   -3.276964
  H     -3.072919    2.741318   -2.978333
  N     -1.760461    1.345922   -2.088558
  H     -1.130632    0.530708   -2.323343
  H     -1.666594    2.281032   -3.979276
  H     -1.165922    2.035435   -1.571092
  H      3.622704   -8.508951    4.939340
  H      2.344608   -7.817453    2.937850
  C      4.032137   -7.791101    4.222778
  H      4.696529   -8.309487    3.525223
  N      2.932785   -7.146076    3.481813
  H      2.277052   -6.592786    4.110347
  H      4.597499   -7.025510    4.762093
  H      3.269849   -6.425562    2.787786

 Total Charge           Charge          ....   -1
 Multiplicity           Mult            ....    1
 Number of Electrons    NEL             ....  346
 Basis Dimension        Dim             .... 1095

ORBITAL ENERGIES
----------------

  NO   OCC          E(Eh)            E(eV)
   0   2.0000    -102.757657     -2796.1780
   1   2.0000    -102.739785     -2795.6917
   2   2.0000    -102.738594     -2795.6593
   3   2.0000    -102.734740     -2795.5544
   4   2.0000    -102.731566     -2795.4680
   5   2.0000    -102.730048     -2795.4267
   6   2.0000    -102.728495     -2795.3845
   7   2.0000    -102.727494     -2795.3572
   8   2.0000    -102.724763     -2795.2829
   9   2.0000    -102.719037     -2795.1271
  10   2.0000    -102.717335     -2795.0808
  11   2.0000     -14.843091      -403.9010
  12   2.0000     -14.840782      -403.8382
  13   2.0000     -14.832741      -403.6194
  14   2.0000     -14.831536      -403.5866
  15   2.0000     -14.831279      -403.5796
  16   2.0000     -14.830129      -403.5483
  17   2.0000     -10.614489      -288.8349
  18   2.0000     -10.612417      -288.7786
  19   2.0000     -10.605229      -288.5829
  20   2.0000     -10.603616      -288.5391
  21   2.0000     -10.582246      -287.9576
  22   2.0000     -10.581521      -287.9378
  23   2.0000      -9.765216      -265.7250
  24   2.0000      -9.746604      -265.2186
  25   2.0000      -9.745504      -265.1886
  26   2.0000      -9.741918      -265.0911
  27   2.0000      -9.738493      -264.9979
  28   2.0000      -9.737249      -264.9640
  29   2.0000      -9.735319      -264.9115
  30   2.0000      -9.734590      -264.8917
  31   2.0000      -9.731834      -264.8167
  32   2.0000      -9.726140      -264.6617
  33   2.0000      -9.724398      -264.6143
  34   2.0000      -7.401987      -201.4183
  35   2.0000      -7.400684      -201.3828
  36   2.0000      -7.400670      -201.3825
  37   2.0000      -7.383430      -200.9133
  38   2.0000      -7.382355      -200.8841
  39   2.0000      -7.382326      -200.8833
  40   2.0000      -7.381896      -200.8716
  41   2.0000      -7.381258      -200.8542
  42   2.0000      -7.380789      -200.8415
  43   2.0000      -7.378264      -200.7728
  44   2.0000      -7.378123      -200.7689
  45   2.0000      -7.377422      -200.7499
  46   2.0000      -7.374966      -200.6830
  47   2.0000      -7.374496      -200.6702
  48   2.0000      -7.373975      -200.6561
  49   2.0000      -7.373658      -200.6474
  50   2.0000      -7.373386      -200.6400
  51   2.0000      -7.372773      -200.6234
  52   2.0000      -7.371832      -200.5977
  53   2.0000      -7.371313      -200.5836
  54   2.0000      -7.370836      -200.5706
  55   2.0000      -7.370782      -200.5692
  56   2.0000      -7.370648      -200.5655
  57   2.0000      -7.370232      -200.5542
  58   2.0000      -7.368055      -200.4950
  59   2.0000      -7.367922      -200.4913
  60   2.0000      -7.367488      -200.4796
  61   2.0000      -7.362433      -200.3420
  62   2.0000      -7.362057      -200.3317
  63   2.0000      -7.361969      -200.3293
  64   2.0000      -7.360681      -200.2943
  65   2.0000      -7.360331      -200.2848
  66   2.0000      -7.360230      -200.2820
  67   2.0000      -5.706887      -155.2923
  68   2.0000      -5.704472      -155.2266
  69   2.0000      -3.477985       -94.6408
  70   2.0000      -3.476761       -94.6075
  71   2.0000      -3.476497       -94.6003
  72   2.0000      -3.475625       -94.5766
  73   2.0000      -3.474300       -94.5405
  74   2.0000      -3.474099       -94.5350
  75   2.0000      -1.025594       -27.9078
  76   2.0000      -1.023371       -27.8474
  77   2.0000      -1.015875       -27.6434
  78   2.0000      -1.014280       -27.6000
  79   2.0000      -1.009777       -27.4774
  80   2.0000      -1.008458       -27.4415
  81   2.0000      -0.869343       -23.6560
  82   2.0000      -0.867030       -23.5931
  83   2.0000      -0.866549       -23.5800
  84   2.0000      -0.865512       -23.5518
  85   2.0000      -0.864882       -23.5346
  86   2.0000      -0.864822       -23.5330
  87   2.0000      -0.863683       -23.5020
  88   2.0000      -0.863327       -23.4923
  89   2.0000      -0.862538       -23.4708
  90   2.0000      -0.861298       -23.4371
  91   2.0000      -0.779992       -21.2247
  92   2.0000      -0.770554       -20.9679
  93   2.0000      -0.767876       -20.8950
  94   2.0000      -0.760205       -20.6862
  95   2.0000      -0.757626       -20.6160
  96   2.0000      -0.755415       -20.5559
  97   2.0000      -0.753432       -20.5019
  98   2.0000      -0.750645       -20.4261
  99   2.0000      -0.747636       -20.3442
 100   2.0000      -0.746356       -20.3094
 101   2.0000      -0.744352       -20.2549
 102   2.0000      -0.743640       -20.2355
 103   2.0000      -0.741605       -20.1801
 104   2.0000      -0.738416       -20.0933
 105   2.0000      -0.736619       -20.0444
 106   2.0000      -0.726669       -19.7737
 107   2.0000      -0.725496       -19.7418
 108   2.0000      -0.558826       -15.2064
 109   2.0000      -0.556601       -15.1459
 110   2.0000      -0.551438       -15.0054
 111   2.0000      -0.549665       -14.9571
 112   2.0000      -0.549592       -14.9552
 113   2.0000      -0.547942       -14.9102
 114   2.0000      -0.546541       -14.8721
 115   2.0000      -0.544833       -14.8257
 116   2.0000      -0.543283       -14.7835
 117   2.0000      -0.541976       -14.7479
 118   2.0000      -0.533865       -14.5272
 119   2.0000      -0.532557       -14.4916
 120   2.0000      -0.497075       -13.5261
 121   2.0000      -0.494825       -13.4649
 122   2.0000      -0.486123       -13.2281
 123   2.0000      -0.484421       -13.1818
 124   2.0000      -0.468118       -12.7381
 125   2.0000      -0.464880       -12.6500
 126   2.0000      -0.452166       -12.3041
 127   2.0000      -0.436659       -11.8821
 128   2.0000      -0.422736       -11.5032
 129   2.0000      -0.420641       -11.4462
 130   2.0000      -0.420252       -11.4356
 131   2.0000      -0.418150       -11.3784
 132   2.0000      -0.413048       -11.2396
 133   2.0000      -0.411325       -11.1927
 134   2.0000      -0.411115       -11.1870
 135   2.0000      -0.409501       -11.1431
 136   2.0000      -0.398013       -10.8305
 137   2.0000      -0.397055       -10.8044
 138   2.0000      -0.391487       -10.6529
 139   2.0000      -0.390814       -10.6346
 140   2.0000      -0.287106        -7.8125
 141   2.0000      -0.274248        -7.4627
 142   2.0000      -0.268764        -7.3134
 143   2.0000      -0.263579        -7.1723
 144   2.0000      -0.257679        -7.0118
 145   2.0000      -0.255166        -6.9434
 146   2.0000      -0.254125        -6.9151
 147   2.0000      -0.248099        -6.7511
 148   2.0000      -0.245113        -6.6699
 149   2.0000      -0.242839        -6.6080
 150   2.0000      -0.241327        -6.5669
 151   2.0000      -0.238995        -6.5034
 152   2.0000      -0.238015        -6.4767
 153   2.0000      -0.236743        -6.4421
 154   2.0000      -0.234571        -6.3830
 155   2.0000      -0.232032        -6.3139
 156   2.0000      -0.231407        -6.2969
 157   2.0000      -0.230005        -6.2587
 158   2.0000      -0.229211        -6.2371
 159   2.0000      -0.228660        -6.2222
 160   2.0000      -0.228355        -6.2139
 161   2.0000      -0.226834        -6.1725
 162   2.0000      -0.225852        -6.1457
 163   2.0000      -0.224583        -6.1112
 164   2.0000      -0.223415        -6.0794
 165   2.0000      -0.222898        -6.0654
 166   2.0000      -0.222044        -6.0421
 167   2.0000      -0.220807        -6.0085
 168   2.0000      -0.219864        -5.9828
 169   2.0000      -0.217969        -5.9312
 170   2.0000      -0.215767        -5.8713
 171   2.0000      -0.193991        -5.2788
 172   2.0000      -0.185004        -5.0342
 173   0.0000       0.096671         2.6305
 174   0.0000       0.111078         3.0226
 175   0.0000       0.118013         3.2113
 176   0.0000       0.122160         3.3241
 177   0.0000       0.125745         3.4217

MULLIKEN ATOMIC CHARGES
-----------------------
   0 C :   -0.251582
   1 N :   -0.289308
   2 H :    0.136329
   3 H :    0.141782
   4 H :    0.139935
   5 H :    0.272336
   6 H :    0.268692
   7 H :    0.281574
   8 Pb:    0.994541
   9 Cl:   -0.608750
  10 Cl:   -0.718107
  11 Cl:   -0.654955
  12 Cl:   -0.702300
  13 Cl:   -0.667612
  14 Cl:   -0.594714
  15 N :   -0.273901
  16 C :   -0.240795
  17 H :    0.274927
  18 H :    0.297969
  19 H :    0.147982
  20 H :    0.137472
  21 H :    0.121885
  22 H :    0.294219
  23 Cl:   -0.664399
  24 Cl:   -0.702494
  25 Pb:    0.993694
  26 N :   -0.278786
  27 C :   -0.235223
  28 H :    0.293970
  29 H :    0.296843
  30 H :    0.120433
  31 H :    0.150348
  32 H :    0.138150
  33 H :    0.275235
  34 Cl:   -0.606728
  35 H :    0.136437
  36 H :    0.267560
  37 H :    0.140522
  38 C :   -0.250491
  39 N :   -0.290738
  40 Cl:   -0.654930
  41 H :    0.275219
  42 H :    0.281536
  43 H :    0.141878
  44 Cl:   -0.711072
  45 H :    0.134839
  46 H :    0.270430
  47 C :   -0.244498
  48 H :    0.136441
  49 N :   -0.283802
  50 H :    0.260467
  51 H :    0.137644
  52 H :    0.275530
  53 H :    0.137217
  54 H :    0.275089
  55 C :   -0.245553
  56 H :    0.137518
  57 N :   -0.287038
  58 H :    0.272320
  59 H :    0.136121
  60 H :    0.262693
Sum of atomic charges:   -1.0000000

LOEWDIN ATOMIC CHARGES
----------------------
   0 C :   -0.297769
   1 N :    0.063602
   2 H :    0.117590
   3 H :    0.119444
   4 H :    0.117994
   5 H :    0.148666
   6 H :    0.153026
   7 H :    0.146389
   8 Pb:    0.078743
   9 Cl:   -0.333497
  10 Cl:   -0.523135
  11 Cl:   -0.419724
  12 Cl:   -0.530589
  13 Cl:   -0.440853
  14 Cl:   -0.155830
  15 N :    0.092185
  16 C :   -0.302416
  17 H :    0.149034
  18 H :    0.159536
  19 H :    0.117177
  20 H :    0.111909
  21 H :    0.112333
  22 H :    0.173449
  23 Cl:   -0.435333
  24 Cl:   -0.532639
  25 Pb:    0.088111
  26 N :    0.092228
  27 C :   -0.301577
  28 H :    0.159477
  29 H :    0.173854
  30 H :    0.111664
  31 H :    0.118357
  32 H :    0.111620
  33 H :    0.149326
  34 Cl:   -0.336393
  35 H :    0.117610
  36 H :    0.152807
  37 H :    0.118151
  38 C :   -0.297649
  39 N :    0.063448
  40 Cl:   -0.416856
  41 H :    0.147487
  42 H :    0.147286
  43 H :    0.119369
  44 Cl:   -0.503811
  45 H :    0.118181
  46 H :    0.142414
  47 C :   -0.299358
  48 H :    0.117231
  49 N :    0.061664
  50 H :    0.144169
  51 H :    0.117759
  52 H :    0.147097
  53 H :    0.117561
  54 H :    0.149706
  55 C :   -0.299566
  56 H :    0.117299
  57 N :    0.061012
  58 H :    0.139558
  59 H :    0.118530
  60 H :    0.142939

  Mayer bond orders larger than 0.1
B(  0-C ,  1-N ) :   0.9349 B(  0-C ,  2-H ) :   0.9749 B(  0-C ,  3-H ) :   0.9747
B(  0-C ,  4-H ) :   0.9744 B(  1-N ,  5-H ) :   0.7854 B(  1-N ,  6-H ) :   0.8113
B(  1-N ,  7-H ) :   0.7999 B(  5-H , 11-Cl) :   0.2270 B(  6-H ,  9-Cl) :   0.1886
B(  7-H , 10-Cl) :   0.1883 B(  8-Pb,  9-Cl) :   0.4762 B(  8-Pb, 10-Cl) :   0.1742
B(  8-Pb, 11-Cl) :   0.3593 B(  8-Pb, 12-Cl) :   0.1437 B(  8-Pb, 13-Cl) :   0.2604
B(  8-Pb, 14-Cl) :   0.3056 B( 10-Cl, 52-H ) :   0.1697 B( 12-Cl, 17-H ) :   0.2034
B( 12-Cl, 46-H ) :   0.2347 B( 13-Cl, 18-H ) :   0.1329 B( 13-Cl, 50-H ) :   0.2358
B( 14-Cl, 25-Pb) :   0.2878 B( 15-N , 16-C ) :   0.9306 B( 15-N , 17-H ) :   0.8001
B( 15-N , 18-H ) :   0.8254 B( 15-N , 22-H ) :   0.8685 B( 16-C , 19-H ) :   0.9699
B( 16-C , 20-H ) :   0.9668 B( 16-C , 21-H ) :   0.9707 B( 23-Cl, 25-Pb) :   0.2687
B( 23-Cl, 28-H ) :   0.1353 B( 23-Cl, 60-H ) :   0.2303 B( 24-Cl, 25-Pb) :   0.1364
B( 24-Cl, 33-H ) :   0.1990 B( 24-Cl, 58-H ) :   0.2469 B( 25-Pb, 34-Cl) :   0.4820
B( 25-Pb, 40-Cl) :   0.3433 B( 25-Pb, 44-Cl) :   0.2024 B( 26-N , 27-C ) :   0.9265
B( 26-N , 28-H ) :   0.8268 B( 26-N , 29-H ) :   0.8661 B( 26-N , 33-H ) :   0.8030
B( 27-C , 30-H ) :   0.9705 B( 27-C , 31-H ) :   0.9694 B( 27-C , 32-H ) :   0.9655
B( 34-Cl, 36-H ) :   0.1902 B( 35-H , 38-C ) :   0.9750 B( 36-H , 39-N ) :   0.8116
B( 37-H , 38-C ) :   0.9742 B( 38-C , 39-N ) :   0.9328 B( 38-C , 43-H ) :   0.9747
B( 39-N , 41-H ) :   0.7818 B( 39-N , 42-H ) :   0.8046 B( 40-Cl, 41-H ) :   0.2276
B( 42-H , 44-Cl) :   0.1818 B( 44-Cl, 54-H ) :   0.1585 B( 45-H , 47-C ) :   0.9750
B( 46-H , 49-N ) :   0.7801 B( 47-C , 48-H ) :   0.9757 B( 47-C , 49-N ) :   0.9395
B( 47-C , 51-H ) :   0.9748 B( 49-N , 50-H ) :   0.7890 B( 49-N , 52-H ) :   0.8162
B( 53-H , 55-C ) :   0.9758 B( 54-H , 57-N ) :   0.8238 B( 55-C , 56-H ) :   0.9747
B( 55-C , 57-N ) :   0.9369 B( 55-C , 59-H ) :   0.9749 B( 57-N , 58-H ) :   0.7706
B( 57-N , 60-H ) :   0.7895

MP2 TOTAL ENERGY:    -6025.869483954 Eh
Dispersion correction           -0.080384888
FINAL SINGLE POINT ENERGY     -6025.949868841617

DIPOLE MOMENT
-------------
                                X             Y             Z
Electronic contribution:    -30.83166       3.62685      33.45772
Nuclear contribution   :     32.13497      -4.03070     -34.75831
                        -----------------------------------------
Total Dipole Moment    :      1.30331      -0.40384      -1.30059
                        -----------------------------------------
Magnitude (a.u.)       :      1.88501
Magnitude (Debye)      :      4.79131

                             ****ORCA TERMINATED NORMALLY****
TOTAL RUN TIME: 0 days 0 hours 47 minutes 7 seconds 764 msec
