                         Program Version 3.0.3 - RELEASE   -
|  1> ! PW6B95 def2-TZVP GCP(DFT/TZ) ECP{def2-TZVP} Grid7 MORead
|  2> %pal nprocs 2 end
|  3> %method
|  4>  RunTyp Gradient
|  5>  end
|  6> %maxcore 2000
|  7> %moinp "previous.gbw"
|  8> *xyz 0 1
|  9> Pb 0.378243 0.361657 0.322554
| 10> Cl 2.880785 0.007620 1.047943
| 11> Cl 0.796226 2.876473 -0.167587
| 12> Cl -0.279857 0.836238 2.725349
| 13> Cs 4.017402 4.778344 3.466598
| 14> *
| 15>
| 16>                          ****END OF INPUT****

CARTESIAN COORDINATES (ANGSTROEM)
---------------------------------
  Pb     0.378243    0.361657    0.322554
  Cl     2.880785    0.007620    1.047943
  Cl     0.796226    2.876473   -0.167587
  Cl    -0.279857    0.836238    2.725349
  Cs     4.017402    4.778344    3.466598

 Total Charge           Charge          ....    0
 Multiplicity           Mult            ....    1
 Number of Electrons    NEL             ....   82
 Basis Dimension        Dim             ....  190

ORBITAL ENERGIES
----------------

  NO   OCC          E(Eh)            E(eV)
   0   2.0000    -101.810137     -2770.3947
   1   2.0000    -101.809121     -2770.3670
   2   2.0000    -101.803266     -2770.2077
   3   2.0000      -9.450524      -257.1618
   4   2.0000      -9.449789      -257.1418
   5   2.0000      -9.443442      -256.9691
   6   2.0000      -7.180236      -195.3841
   7   2.0000      -7.179597      -195.3668
   8   2.0000      -7.177533      -195.3106
   9   2.0000      -7.177361      -195.3059
  10   2.0000      -7.176657      -195.2868
  11   2.0000      -7.176567      -195.2843
  12   2.0000      -7.173206      -195.1929
  13   2.0000      -7.170451      -195.1179
  14   2.0000      -7.170274      -195.1131
  15   2.0000      -5.508112      -149.8833
  16   2.0000      -3.332188       -90.6734
  17   2.0000      -3.331900       -90.6656
  18   2.0000      -3.330200       -90.6194
  19   2.0000      -1.166596       -31.7447
  20   2.0000      -0.829781       -22.5795
  21   2.0000      -0.828195       -22.5363
  22   2.0000      -0.822286       -22.3755
  23   2.0000      -0.821836       -22.3633
  24   2.0000      -0.820560       -22.3286
  25   2.0000      -0.729466       -19.8498
  26   2.0000      -0.709887       -19.3170
  27   2.0000      -0.704956       -19.1828
  28   2.0000      -0.635391       -17.2899
  29   2.0000      -0.635237       -17.2857
  30   2.0000      -0.632952       -17.2235
  31   2.0000      -0.450614       -12.2618
  32   2.0000      -0.279035        -7.5929
  33   2.0000      -0.275212        -7.4889
  34   2.0000      -0.264234        -7.1902
  35   2.0000      -0.246259        -6.7010
  36   2.0000      -0.246173        -6.6987
  37   2.0000      -0.231773        -6.3069
  38   2.0000      -0.228510        -6.2181
  39   2.0000      -0.226464        -6.1624
  40   2.0000      -0.217189        -5.9100
  41   0.0000      -0.092420        -2.5149
  42   0.0000      -0.036316        -0.9882
  43   0.0000      -0.035464        -0.9650
  44   0.0000      -0.035416        -0.9637
  45   0.0000      -0.030853        -0.8395

MULLIKEN ATOMIC CHARGES
-----------------------
   0 Pb:    0.765057
   1 Cl:   -0.571969
   2 Cl:   -0.570332
   3 Cl:   -0.538954
   4 Cs:    0.916198
Sum of atomic charges:   -0.0000000

LOEWDIN ATOMIC CHARGES
----------------------
   0 Pb:   -0.040568
   1 Cl:   -0.283726
   2 Cl:   -0.261426
   3 Cl:   -0.222422
   4 Cs:    0.808141

  Mayer bond orders larger than 0.1
B(  0-Pb,  1-Cl) :   0.6725 B(  0-Pb,  2-Cl) :   0.6670 B(  0-Pb,  3-Cl) :   0.7411

FINAL SINGLE POINT ENERGY     -1595.022237313412

DIPOLE MOMENT
-------------
                                X             Y             Z
Electronic contribution:     65.46665      81.88787      42.66520
Nuclear contribution   :    -61.13329     -76.38386     -39.27020
                        -----------------------------------------
Total Dipole Moment    :      4.33336       5.50401       3.39501
                        -----------------------------------------
Magnitude (a.u.)       :      7.78449
Magnitude (Debye)      :     19.78660

                             ****ORCA TERMINATED NORMALLY****
TOTAL RUN TIME: 0 days 0 hours 11 minutes 53 seconds 507 msec
