                         Program Version 3.0.3 - RELEASE   -
|  1> ! PW6B95 def2-TZVP GCP(DFT/TZ) ECP{def2-TZVP} Grid7 MORead
|  2> %pal nprocs 2 end
|  3> %method
|  4>  RunTyp Gradient
|  5>  end
|  6> %maxcore 2000
|  7> %moinp "previous.gbw"
|  8> *xyz 0 1
|  9> Pb 0.382267 0.308205 0.328660
| 10> Cl 2.928204 0.259068 0.614816
| 11> Cl 0.448402 2.990762 -0.119149
| 12> Cl 0.005776 0.830718 2.920008
| 13> Cs 2.899718 3.383644 2.485147
| 14> *
| 15>
| 16>                          ****END OF INPUT****

CARTESIAN COORDINATES (ANGSTROEM)
---------------------------------
  Pb     0.382267    0.308205    0.328660
  Cl     2.928204    0.259068    0.614816
  Cl     0.448402    2.990762   -0.119149
  Cl     0.005776    0.830718    2.920008
  Cs     2.899718    3.383644    2.485147

 Total Charge           Charge          ....    0
 Multiplicity           Mult            ....    1
 Number of Electrons    NEL             ....   82
 Basis Dimension        Dim             ....  190

ORBITAL ENERGIES
----------------

  NO   OCC          E(Eh)            E(eV)
   0   2.0000    -101.862516     -2771.8200
   1   2.0000    -101.846817     -2771.3928
   2   2.0000    -101.846668     -2771.3887
   3   2.0000      -9.503115      -258.5929
   4   2.0000      -9.486656      -258.1450
   5   2.0000      -9.486474      -258.1401
   6   2.0000      -7.232741      -196.8129
   7   2.0000      -7.230225      -196.7444
   8   2.0000      -7.229858      -196.7344
   9   2.0000      -7.216286      -196.3651
  10   2.0000      -7.216213      -196.3631
  11   2.0000      -7.213916      -196.3006
  12   2.0000      -7.213649      -196.2934
  13   2.0000      -7.213459      -196.2882
  14   2.0000      -7.213230      -196.2820
  15   2.0000      -5.559226      -151.2742
  16   2.0000      -3.383333       -92.0652
  17   2.0000      -3.382683       -92.0475
  18   2.0000      -3.381430       -92.0134
  19   2.0000      -1.097873       -29.8746
  20   2.0000      -0.879119       -23.9221
  21   2.0000      -0.876335       -23.8463
  22   2.0000      -0.872722       -23.7480
  23   2.0000      -0.872520       -23.7425
  24   2.0000      -0.871397       -23.7119
  25   2.0000      -0.774547       -21.0765
  26   2.0000      -0.752619       -20.4798
  27   2.0000      -0.746383       -20.3101
  28   2.0000      -0.568245       -15.4627
  29   2.0000      -0.567846       -15.4519
  30   2.0000      -0.564985       -15.3740
  31   2.0000      -0.496346       -13.5063
  32   2.0000      -0.322335        -8.7712
  33   2.0000      -0.313843        -8.5401
  34   2.0000      -0.310634        -8.4528
  35   2.0000      -0.291311        -7.9270
  36   2.0000      -0.288802        -7.8587
  37   2.0000      -0.274556        -7.4710
  38   2.0000      -0.272884        -7.4256
  39   2.0000      -0.265857        -7.2343
  40   2.0000      -0.265190        -7.2162
  41   0.0000      -0.048918        -1.3311
  42   0.0000      -0.026759        -0.7282
  43   0.0000      -0.020304        -0.5525
  44   0.0000      -0.014670        -0.3992
  45   0.0000      -0.006361        -0.1731

MULLIKEN ATOMIC CHARGES
-----------------------
   0 Pb:    0.790808
   1 Cl:   -0.512909
   2 Cl:   -0.547803
   3 Cl:   -0.527226
   4 Cs:    0.797129
Sum of atomic charges:   -0.0000000

LOEWDIN ATOMIC CHARGES
----------------------
   0 Pb:    0.168560
   1 Cl:   -0.141150
   2 Cl:   -0.226348
   3 Cl:   -0.216158
   4 Cs:    0.415096

  Mayer bond orders larger than 0.1
B(  0-Pb,  1-Cl) :   0.6956 B(  0-Pb,  2-Cl) :   0.6184 B(  0-Pb,  3-Cl) :   0.6819
B(  1-Cl,  4-Cs) :   0.1255 B(  2-Cl,  4-Cs) :   0.1522 B(  3-Cl,  4-Cs) :   0.1163

FINAL SINGLE POINT ENERGY     -1595.077115394220

DIPOLE MOMENT
-------------
                                X             Y             Z
Electronic contribution:     31.01336      28.78911      15.81657
Nuclear contribution   :    -29.00022     -27.00756     -14.64121
                        -----------------------------------------
Total Dipole Moment    :      2.01313       1.78155       1.17535
                        -----------------------------------------
Magnitude (a.u.)       :      2.93395
Magnitude (Debye)      :      7.45751

                             ****ORCA TERMINATED NORMALLY****
TOTAL RUN TIME: 0 days 0 hours 13 minutes 7 seconds 906 msec
