                         Program Version 3.0.3 - RELEASE   -
|  1> ! PW6B95 def2-TZVP GCP(DFT/TZ) ECP{def2-TZVP} Grid7 MORead
|  2> %pal nprocs 2 end
|  3> %method
|  4>  RunTyp Gradient
|  5>  end
|  6> %maxcore 2000
|  7> %moinp "previous.gbw"
|  8> *xyz 0 1
|  9> Pb 0.137954 0.517410 0.360549
| 10> Cl 2.668563 -0.373045 -0.028915
| 11> Cl 1.000832 3.033411 0.242914
| 12> Cl 0.557014 0.492554 3.062233
| 13> Cs 3.146248 3.716510 2.816874
| 14> *
| 15>
| 16>                          ****END OF INPUT****

CARTESIAN COORDINATES (ANGSTROEM)
---------------------------------
  Pb     0.137954    0.517410    0.360549
  Cl     2.668563   -0.373045   -0.028915
  Cl     1.000832    3.033411    0.242914
  Cl     0.557014    0.492554    3.062233
  Cs     3.146248    3.716510    2.816874

 Total Charge           Charge          ....    0
 Multiplicity           Mult            ....    1
 Number of Electrons    NEL             ....   82
 Basis Dimension        Dim             ....  190

ORBITAL ENERGIES
----------------

  NO   OCC          E(Eh)            E(eV)
   0   2.0000    -101.856830     -2771.6652
   1   2.0000    -101.836304     -2771.1067
   2   2.0000    -101.827091     -2770.8560
   3   2.0000      -9.497292      -258.4344
   4   2.0000      -9.475822      -257.8502
   5   2.0000      -9.466462      -257.5955
   6   2.0000      -7.226835      -196.6522
   7   2.0000      -7.224469      -196.5878
   8   2.0000      -7.224150      -196.5791
   9   2.0000      -7.205599      -196.0743
  10   2.0000      -7.203005      -196.0037
  11   2.0000      -7.202613      -195.9931
  12   2.0000      -7.196516      -195.8271
  13   2.0000      -7.193379      -195.7418
  14   2.0000      -7.193226      -195.7376
  15   2.0000      -5.557324      -151.2225
  16   2.0000      -3.381441       -92.0137
  17   2.0000      -3.380789       -91.9960
  18   2.0000      -3.379294       -91.9553
  19   2.0000      -1.113817       -30.3085
  20   2.0000      -0.875037       -23.8110
  21   2.0000      -0.872365       -23.7383
  22   2.0000      -0.870583       -23.6898
  23   2.0000      -0.869851       -23.6698
  24   2.0000      -0.868679       -23.6379
  25   2.0000      -0.766231       -20.8502
  26   2.0000      -0.739611       -20.1258
  27   2.0000      -0.727630       -19.7998
  28   2.0000      -0.584720       -15.9110
  29   2.0000      -0.583470       -15.8770
  30   2.0000      -0.579856       -15.7787
  31   2.0000      -0.489125       -13.3098
  32   2.0000      -0.314140        -8.5482
  33   2.0000      -0.302333        -8.2269
  34   2.0000      -0.299411        -8.1474
  35   2.0000      -0.281609        -7.6630
  36   2.0000      -0.273647        -7.4463
  37   2.0000      -0.264097        -7.1865
  38   2.0000      -0.255363        -6.9488
  39   2.0000      -0.252271        -6.8646
  40   2.0000      -0.248785        -6.7698
  41   0.0000      -0.059458        -1.6179
  42   0.0000      -0.023558        -0.6411
  43   0.0000      -0.022039        -0.5997
  44   0.0000      -0.017471        -0.4754
  45   0.0000      -0.013027        -0.3545

MULLIKEN ATOMIC CHARGES
-----------------------
   0 Pb:    0.810248
   1 Cl:   -0.526878
   2 Cl:   -0.564994
   3 Cl:   -0.551249
   4 Cs:    0.832874
Sum of atomic charges:   -0.0000000

LOEWDIN ATOMIC CHARGES
----------------------
   0 Pb:    0.211946
   1 Cl:   -0.276038
   2 Cl:   -0.191043
   3 Cl:   -0.269199
   4 Cs:    0.524334

  Mayer bond orders larger than 0.1
B(  0-Pb,  1-Cl) :   0.7474 B(  0-Pb,  2-Cl) :   0.5783 B(  0-Pb,  3-Cl) :   0.6560
B(  2-Cl,  4-Cs) :   0.1691 B(  3-Cl,  4-Cs) :   0.1076

FINAL SINGLE POINT ENERGY     -1595.058522916405

DIPOLE MOMENT
-------------
                                X             Y             Z
Electronic contribution:     13.43478      65.00277      29.84882
Nuclear contribution   :    -12.03787     -61.43425     -28.03274
                        -----------------------------------------
Total Dipole Moment    :      1.39691       3.56852       1.81608
                        -----------------------------------------
Magnitude (a.u.)       :      4.24073
Magnitude (Debye)      :     10.77909

                             ****ORCA TERMINATED NORMALLY****
TOTAL RUN TIME: 0 days 0 hours 12 minutes 19 seconds 465 msec
