                         Program Version 3.0.3 - RELEASE   -
|  1> ! PW6B95 def2-TZVP GCP(DFT/TZ) ECP{def2-TZVP} Grid7 MORead
|  2> %pal nprocs 2 end
|  3> %method
|  4>  RunTyp Gradient
|  5>  end
|  6> %maxcore 2000
|  7> %moinp "previous.gbw"
|  8> *xyz 0 1
|  9> Pb 1.997351 -0.139516 1.297594
| 10> Cl 3.724376 1.760990 1.548628
| 11> Cl 0.716837 1.240171 -0.868285
| 12> Cl 0.377818 0.860477 3.064275
| 13> Cs 1.122274 3.784730 1.490070
| 14> *
| 15>
| 16>                          ****END OF INPUT****

CARTESIAN COORDINATES (ANGSTROEM)
---------------------------------
  Pb     1.997351   -0.139516    1.297594
  Cl     3.724376    1.760990    1.548628
  Cl     0.716837    1.240171   -0.868285
  Cl     0.377818    0.860477    3.064275
  Cs     1.122274    3.784730    1.490070

 Total Charge           Charge          ....    0
 Multiplicity           Mult            ....    1
 Number of Electrons    NEL             ....   82
 Basis Dimension        Dim             ....  190

ORBITAL ENERGIES
----------------

  NO   OCC          E(Eh)            E(eV)
   0   2.0000    -101.875955     -2772.1857
   1   2.0000    -101.873238     -2772.1117
   2   2.0000    -101.845701     -2771.3624
   3   2.0000      -9.516697      -258.9625
   4   2.0000      -9.513684      -258.8805
   5   2.0000      -9.484964      -258.0990
   6   2.0000      -7.246310      -197.1821
   7   2.0000      -7.243784      -197.1134
   8   2.0000      -7.243426      -197.1037
   9   2.0000      -7.243325      -197.1009
  10   2.0000      -7.240795      -197.0320
  11   2.0000      -7.240429      -197.0221
  12   2.0000      -7.214645      -196.3205
  13   2.0000      -7.212264      -196.2557
  14   2.0000      -7.211798      -196.2430
  15   2.0000      -5.574759      -151.6969
  16   2.0000      -3.398922       -92.4894
  17   2.0000      -3.397889       -92.4613
  18   2.0000      -3.397240       -92.4436
  19   2.0000      -1.080215       -29.3941
  20   2.0000      -0.894599       -24.3433
  21   2.0000      -0.891742       -24.2655
  22   2.0000      -0.888221       -24.1697
  23   2.0000      -0.887950       -24.1623
  24   2.0000      -0.887317       -24.1451
  25   2.0000      -0.791009       -21.5244
  26   2.0000      -0.775864       -21.1123
  27   2.0000      -0.746868       -20.3233
  28   2.0000      -0.551782       -15.0147
  29   2.0000      -0.551255       -15.0004
  30   2.0000      -0.550082       -14.9685
  31   2.0000      -0.511297       -13.9131
  32   2.0000      -0.339672        -9.2429
  33   2.0000      -0.326086        -8.8733
  34   2.0000      -0.321767        -8.7557
  35   2.0000      -0.308229        -8.3873
  36   2.0000      -0.301518        -8.2047
  37   2.0000      -0.297649        -8.0995
  38   2.0000      -0.278603        -7.5812
  39   2.0000      -0.273520        -7.4429
  40   2.0000      -0.271444        -7.3864
  41   0.0000      -0.046524        -1.2660
  42   0.0000      -0.038463        -1.0466
  43   0.0000      -0.028364        -0.7718
  44   0.0000      -0.027075        -0.7367
  45   0.0000       0.000397         0.0108

MULLIKEN ATOMIC CHARGES
-----------------------
   0 Pb:    0.773495
   1 Cl:   -0.500395
   2 Cl:   -0.554115
   3 Cl:   -0.499259
   4 Cs:    0.780275
Sum of atomic charges:   -0.0000000

LOEWDIN ATOMIC CHARGES
----------------------
   0 Pb:    0.229799
   1 Cl:   -0.114482
   2 Cl:   -0.272820
   3 Cl:   -0.130705
   4 Cs:    0.288209

  Mayer bond orders larger than 0.1
B(  0-Pb,  1-Cl) :   0.6962 B(  0-Pb,  2-Cl) :   0.5956 B(  0-Pb,  3-Cl) :   0.7050
B(  1-Cl,  4-Cs) :   0.1379 B(  2-Cl,  4-Cs) :   0.1631 B(  3-Cl,  4-Cs) :   0.1312

FINAL SINGLE POINT ENERGY     -1595.081003076375

DIPOLE MOMENT
-------------
                                X             Y             Z
Electronic contribution:     -2.29790      31.37779       9.29810
Nuclear contribution   :      2.23322     -29.44240      -8.54174
                        -----------------------------------------
Total Dipole Moment    :     -0.06468       1.93540       0.75636
                        -----------------------------------------
Magnitude (a.u.)       :      2.07895
Magnitude (Debye)      :      5.28426

                             ****ORCA TERMINATED NORMALLY****
TOTAL RUN TIME: 0 days 0 hours 13 minutes 4 seconds 511 msec
