                         Program Version 3.0.3 - RELEASE   -
|  1> ! RIJCOSX RI-B2PLYP D3BJ def2-TZVP ECP{def2-TZVP} TIGHTSCF Grid5 FinalGrid6 SlowConv MORead
|  2> %method
|  3>  RunTyp Gradient
|  4>  end
|  5> %maxcore 1000
|  6> %moinp "previous.gbw"
|  7> *xyz 0 1
|  8> C -0.250268 -0.167812 -2.280710
|  9> N 0.452847 -1.412560 -2.193830
| 10> H -0.029783 -2.101880 -2.390040
| 11> H 0.788379 -1.628820 -1.214850
| 12> H 1.365910 -1.417280 -2.755480
| 13> H -1.027570 -0.015905 -1.456280
| 14> H -0.939815 -0.174784 -3.078340
| 15> H 0.440022 0.616522 -2.280980
| 16> Pb -3.051080 -2.492420 -2.293620
| 17> Cl -1.164720 -2.724520 -0.637424
| 18> Cl -3.559820 -0.258397 -2.908690
| 19> Cl -4.865480 -4.085390 -1.704650
| 20> *
| 21>
| 22>                          ****END OF INPUT****

CARTESIAN COORDINATES (ANGSTROEM)
---------------------------------
  C     -0.250268   -0.167812   -2.280710
  N      0.452847   -1.412560   -2.193830
  H     -0.029783   -2.101880   -2.390040
  H      0.788379   -1.628820   -1.214850
  H      1.365910   -1.417280   -2.755480
  H     -1.027570   -0.015905   -1.456280
  H     -0.939815   -0.174784   -3.078340
  H      0.440022    0.616522   -2.280980
  Pb    -3.051080   -2.492420   -2.293620
  Cl    -1.164720   -2.724520   -0.637424
  Cl    -3.559820   -0.258397   -2.908690
  Cl    -4.865480   -4.085390   -1.704650

 Total Charge           Charge          ....    0
 Multiplicity           Mult            ....    1
 Number of Electrons    NEL             ....   92
 Basis Dimension        Dim             ....  259

ORBITAL ENERGIES
----------------

  NO   OCC          E(Eh)            E(eV)
   0   2.0000    -102.850041     -2798.6919
   1   2.0000    -102.845783     -2798.5760
   2   2.0000    -102.819279     -2797.8548
   3   2.0000     -15.013624      -408.5415
   4   2.0000     -10.710459      -291.4464
   5   2.0000      -9.860278      -268.3118
   6   2.0000      -9.855127      -268.1716
   7   2.0000      -9.826489      -267.3924
   8   2.0000      -7.496858      -203.9999
   9   2.0000      -7.495549      -203.9643
  10   2.0000      -7.495369      -203.9594
  11   2.0000      -7.491999      -203.8676
  12   2.0000      -7.490199      -203.8187
  13   2.0000      -7.490108      -203.8162
  14   2.0000      -7.463772      -203.0996
  15   2.0000      -7.461566      -203.0395
  16   2.0000      -7.461487      -203.0374
  17   2.0000      -5.773585      -157.1072
  18   2.0000      -3.546117       -96.4947
  19   2.0000      -3.544298       -96.4452
  20   2.0000      -3.542960       -96.4088
  21   2.0000      -1.223986       -33.3064
  22   2.0000      -0.957903       -26.0659
  23   2.0000      -0.949546       -25.8385
  24   2.0000      -0.943426       -25.6719
  25   2.0000      -0.935300       -25.4508
  26   2.0000      -0.934861       -25.4389
  27   2.0000      -0.900997       -24.5174
  28   2.0000      -0.883014       -24.0280
  29   2.0000      -0.859681       -23.3931
  30   2.0000      -0.832821       -22.6622
  31   2.0000      -0.765113       -20.8198
  32   2.0000      -0.709028       -19.2936
  33   2.0000      -0.647522       -17.6200
  34   2.0000      -0.566942       -15.4273
  35   2.0000      -0.544242       -14.8096
  36   2.0000      -0.501390       -13.6435
  37   2.0000      -0.395585       -10.7644
  38   2.0000      -0.379377       -10.3234
  39   2.0000      -0.366105        -9.9622
  40   2.0000      -0.354547        -9.6477
  41   2.0000      -0.349974        -9.5233
  42   2.0000      -0.343424        -9.3451
  43   2.0000      -0.316321        -8.6075
  44   2.0000      -0.313176        -8.5219
  45   2.0000      -0.240396        -6.5415
  46   0.0000      -0.017735        -0.4826
  47   0.0000      -0.009077        -0.2470
  48   0.0000       0.036362         0.9895
  49   0.0000       0.061931         1.6852
  50   0.0000       0.064839         1.7644

Dispersion correction            ...

MULLIKEN ATOMIC CHARGES
-----------------------
   0 C :   -0.315901
   1 N :   -0.210344
   2 H :    0.225485
   3 H :    0.306327
   4 H :    0.280834
   5 H :    0.207011
   6 H :    0.185102
   7 H :    0.159899
   8 Pb:    0.715558
   9 Cl:   -0.574702
  10 Cl:   -0.491283
  11 Cl:   -0.487985
Sum of atomic charges:   -0.0000000

LOEWDIN ATOMIC CHARGES
----------------------
   0 C :   -0.323882
   1 N :    0.146932
   2 H :    0.080256
   3 H :    0.212071
   4 H :    0.221999
   5 H :    0.157275
   6 H :    0.118704
   7 H :    0.113581
   8 Pb:   -0.249104
   9 Cl:   -0.190859
  10 Cl:   -0.112568
  11 Cl:   -0.174403

  Mayer bond orders larger than 0.1
B(  0-C ,  1-N ) :   0.8628 B(  0-C ,  5-H ) :   0.9293 B(  0-C ,  6-H ) :   0.9379
B(  0-C ,  7-H ) :   0.9440 B(  1-N ,  2-H ) :   0.9101 B(  1-N ,  3-H ) :   0.8338
B(  1-N ,  4-H ) :   0.8565 B(  8-Pb,  9-Cl) :   0.4850 B(  8-Pb, 10-Cl) :   0.7346
B(  8-Pb, 11-Cl) :   0.7947

MP2 TOTAL ENERGY:    -1669.502455566 Eh
Dispersion correction           -0.013623333
FINAL SINGLE POINT ENERGY     -1669.516078898768

DIPOLE MOMENT
-------------
                                X             Y             Z
Electronic contribution:    -51.39900     -37.30812     -25.74823
Nuclear contribution   :     56.39271      38.98155      24.79244
                        -----------------------------------------
Total Dipole Moment    :      4.99371       1.67343      -0.95579
                        -----------------------------------------
Magnitude (a.u.)       :      5.35266
Magnitude (Debye)      :     13.60539

                             ****ORCA TERMINATED NORMALLY****
TOTAL RUN TIME: 0 days 0 hours 13 minutes 29 seconds 287 msec
