                         Program Version 3.0.3 - RELEASE   -
|  1> ! RIJCOSX RI-B2PLYP D3BJ def2-TZVP ECP{def2-TZVP} TIGHTSCF Grid5 FinalGrid6 SlowConv MORead
|  2> %method
|  3>  RunTyp Gradient
|  4>  end
|  5> %maxcore 1000
|  6> %moinp "previous.gbw"
|  7> *xyz 0 1
|  8> C -0.394281 0.276013 -0.426662
|  9> N -1.165380 -0.685592 -1.253010
| 10> H 0.248796 -0.278576 0.260517
| 11> H -1.090820 0.897444 0.140826
| 12> H 0.215705 0.904875 -1.079130
| 13> H -1.783150 -1.324970 -0.698370
| 14> H -0.582260 -1.326300 -1.835140
| 15> H -1.813140 -0.240924 -1.938260
| 16> Pb -2.673220 -2.425720 -3.245070
| 17> Cl -0.432576 -3.212520 -2.524200
| 18> Cl -2.553140 0.039011 -3.773850
| 19> Cl -3.854520 -2.272120 -1.031670
| 20> *
| 21>
| 22>                          ****END OF INPUT****

CARTESIAN COORDINATES (ANGSTROEM)
---------------------------------
  C     -0.394281    0.276013   -0.426662
  N     -1.165380   -0.685592   -1.253010
  H      0.248796   -0.278576    0.260517
  H     -1.090820    0.897444    0.140826
  H      0.215705    0.904875   -1.079130
  H     -1.783150   -1.324970   -0.698370
  H     -0.582260   -1.326300   -1.835140
  H     -1.813140   -0.240924   -1.938260
  Pb    -2.673220   -2.425720   -3.245070
  Cl    -0.432576   -3.212520   -2.524200
  Cl    -2.553140    0.039011   -3.773850
  Cl    -3.854520   -2.272120   -1.031670

 Total Charge           Charge          ....    0
 Multiplicity           Mult            ....    1
 Number of Electrons    NEL             ....   92
 Basis Dimension        Dim             ....  259

ORBITAL ENERGIES
----------------

  NO   OCC          E(Eh)            E(eV)
   0   2.0000    -102.868737     -2799.2007
   1   2.0000    -102.863850     -2799.0677
   2   2.0000    -102.857757     -2798.9019
   3   2.0000     -14.959650      -407.0728
   4   2.0000     -10.709766      -291.4275
   5   2.0000      -9.877462      -268.7794
   6   2.0000      -9.872162      -268.6352
   7   2.0000      -9.865401      -268.4512
   8   2.0000      -7.514357      -204.4760
   9   2.0000      -7.512833      -204.4346
  10   2.0000      -7.512354      -204.4216
  11   2.0000      -7.509074      -204.3323
  12   2.0000      -7.507585      -204.2918
  13   2.0000      -7.507083      -204.2781
  14   2.0000      -7.502549      -204.1547
  15   2.0000      -7.500710      -204.1047
  16   2.0000      -7.500373      -204.0955
  17   2.0000      -5.797760      -157.7651
  18   2.0000      -3.569621       -97.1343
  19   2.0000      -3.567872       -97.0867
  20   2.0000      -3.567819       -97.0853
  21   2.0000      -1.144296       -31.1379
  22   2.0000      -0.976321       -26.5671
  23   2.0000      -0.973460       -26.4892
  24   2.0000      -0.961563       -26.1655
  25   2.0000      -0.958393       -26.0792
  26   2.0000      -0.956957       -26.0401
  27   2.0000      -0.907423       -24.6922
  28   2.0000      -0.880990       -23.9730
  29   2.0000      -0.869191       -23.6519
  30   2.0000      -0.858126       -23.3508
  31   2.0000      -0.671111       -18.2619
  32   2.0000      -0.669640       -18.2218
  33   2.0000      -0.608453       -16.5568
  34   2.0000      -0.559986       -15.2380
  35   2.0000      -0.522769       -14.2253
  36   2.0000      -0.521480       -14.1902
  37   2.0000      -0.405074       -11.0226
  38   2.0000      -0.396034       -10.7766
  39   2.0000      -0.381337       -10.3767
  40   2.0000      -0.365512        -9.9461
  41   2.0000      -0.364430        -9.9166
  42   2.0000      -0.361202        -9.8288
  43   2.0000      -0.355254        -9.6669
  44   2.0000      -0.347543        -9.4571
  45   2.0000      -0.290775        -7.9124
  46   0.0000      -0.004285        -0.1166
  47   0.0000       0.025377         0.6905
  48   0.0000       0.038342         1.0433
  49   0.0000       0.041349         1.1252
  50   0.0000       0.088347         2.4041

Dispersion correction            ...

MULLIKEN ATOMIC CHARGES
-----------------------
   0 C :   -0.284310
   1 N :   -0.311546
   2 H :    0.161939
   3 H :    0.164397
   4 H :    0.163690
   5 H :    0.293621
   6 H :    0.287021
   7 H :    0.288749
   8 Pb:    0.716418
   9 Cl:   -0.488210
  10 Cl:   -0.492883
  11 Cl:   -0.498885
Sum of atomic charges:   -0.0000000

LOEWDIN ATOMIC CHARGES
----------------------
   0 C :   -0.286472
   1 N :    0.062544
   2 H :    0.127682
   3 H :    0.128845
   4 H :    0.129089
   5 H :    0.179742
   6 H :    0.149239
   7 H :    0.142275
   8 Pb:   -0.146995
   9 Cl:   -0.140042
  10 Cl:   -0.165289
  11 Cl:   -0.180617

  Mayer bond orders larger than 0.1
B(  0-C ,  1-N ) :   0.8893 B(  0-C ,  2-H ) :   0.9516 B(  0-C ,  3-H ) :   0.9517
B(  0-C ,  4-H ) :   0.9521 B(  1-N ,  5-H ) :   0.8230 B(  1-N ,  6-H ) :   0.7891
B(  1-N ,  7-H ) :   0.7774 B(  5-H , 11-Cl) :   0.1051 B(  6-H ,  9-Cl) :   0.1594
B(  7-H , 10-Cl) :   0.1774 B(  8-Pb,  9-Cl) :   0.6586 B(  8-Pb, 10-Cl) :   0.6445
B(  8-Pb, 11-Cl) :   0.6941

MP2 TOTAL ENERGY:    -1669.603393647 Eh
Dispersion correction           -0.014451478
FINAL SINGLE POINT ENERGY     -1669.617845124306

DIPOLE MOMENT
-------------
                                X             Y             Z
Electronic contribution:    -52.61694     -68.53317     -80.55313
Nuclear contribution   :     53.78266      69.47619      81.42403
                        -----------------------------------------
Total Dipole Moment    :      1.16571       0.94302       0.87089
                        -----------------------------------------
Magnitude (a.u.)       :      1.73396
Magnitude (Debye)      :      4.40738

                             ****ORCA TERMINATED NORMALLY****
TOTAL RUN TIME: 0 days 0 hours 14 minutes 45 seconds 463 msec
