                         Program Version 3.0.3 - RELEASE   -
|  1> ! PW6B95 def2-TZVP GCP(DFT/TZ) ECP{def2-TZVP} Grid7 MORead
|  2> %pal nprocs 2 end
|  3> %method
|  4>  RunTyp Gradient
|  5>  end
|  6> %maxcore 2000
|  7> %moinp "previous.gbw"
|  8> *xyz 0 1
|  9> Pb 0.397151 0.330801 0.419425
| 10> Cl 2.942151 0.461427 0.361745
| 11> Cl 0.068272 2.784079 -0.343391
| 12> Cl 0.325981 1.011789 2.991292
| 13> Cs 3.740052 4.461570 3.213594
| 14> *
| 15>
| 16>                          ****END OF INPUT****

CARTESIAN COORDINATES (ANGSTROEM)
---------------------------------
  Pb     0.397151    0.330801    0.419425
  Cl     2.942151    0.461427    0.361745
  Cl     0.068272    2.784079   -0.343391
  Cl     0.325981    1.011789    2.991292
  Cs     3.740052    4.461570    3.213594

 Total Charge           Charge          ....    0
 Multiplicity           Mult            ....    1
 Number of Electrons    NEL             ....   82
 Basis Dimension        Dim             ....  190

ORBITAL ENERGIES
----------------

  NO   OCC          E(Eh)            E(eV)
   0   2.0000    -101.823630     -2770.7618
   1   2.0000    -101.815185     -2770.5320
   2   2.0000    -101.813655     -2770.4904
   3   2.0000      -9.464260      -257.5356
   4   2.0000      -9.455482      -257.2967
   5   2.0000      -9.453663      -257.2472
   6   2.0000      -7.193956      -195.7575
   7   2.0000      -7.191252      -195.6839
   8   2.0000      -7.191051      -195.6784
   9   2.0000      -7.185248      -195.5205
  10   2.0000      -7.183342      -195.4687
  11   2.0000      -7.182450      -195.4444
  12   2.0000      -7.182298      -195.4403
  13   2.0000      -7.180792      -195.3993
  14   2.0000      -7.180509      -195.3916
  15   2.0000      -5.518216      -150.1583
  16   2.0000      -3.342298       -90.9485
  17   2.0000      -3.341743       -90.9335
  18   2.0000      -3.340536       -90.9006
  19   2.0000      -1.155391       -31.4398
  20   2.0000      -0.839671       -22.8486
  21   2.0000      -0.837623       -22.7929
  22   2.0000      -0.832117       -22.6431
  23   2.0000      -0.831913       -22.6375
  24   2.0000      -0.830805       -22.6074
  25   2.0000      -0.738942       -20.1076
  26   2.0000      -0.719239       -19.5715
  27   2.0000      -0.714390       -19.4395
  28   2.0000      -0.624384       -16.9904
  29   2.0000      -0.624197       -16.9853
  30   2.0000      -0.621487       -16.9115
  31   2.0000      -0.459923       -12.5151
  32   2.0000      -0.289058        -7.8657
  33   2.0000      -0.283704        -7.7200
  34   2.0000      -0.273579        -7.4445
  35   2.0000      -0.256726        -6.9859
  36   2.0000      -0.254179        -6.9166
  37   2.0000      -0.241536        -6.5725
  38   2.0000      -0.239457        -6.5159
  39   2.0000      -0.236159        -6.4262
  40   2.0000      -0.226063        -6.1515
  41   0.0000      -0.084616        -2.3025
  42   0.0000      -0.029975        -0.8157
  43   0.0000      -0.029708        -0.8084
  44   0.0000      -0.029540        -0.8038
  45   0.0000      -0.022504        -0.6124

MULLIKEN ATOMIC CHARGES
-----------------------
   0 Pb:    0.774103
   1 Cl:   -0.546780
   2 Cl:   -0.548196
   3 Cl:   -0.576034
   4 Cs:    0.896907
Sum of atomic charges:   -0.0000000

LOEWDIN ATOMIC CHARGES
----------------------
   0 Pb:    0.001772
   1 Cl:   -0.217710
   2 Cl:   -0.247220
   3 Cl:   -0.286596
   4 Cs:    0.749755

  Mayer bond orders larger than 0.1
B(  0-Pb,  1-Cl) :   0.7039 B(  0-Pb,  2-Cl) :   0.7147 B(  0-Pb,  3-Cl) :   0.6421

FINAL SINGLE POINT ENERGY     -1595.033702009745

DIPOLE MOMENT
-------------
                                X             Y             Z
Electronic contribution:     58.83711      59.90526      49.80652
Nuclear contribution   :    -54.83438     -55.58008     -46.65574
                        -----------------------------------------
Total Dipole Moment    :      4.00273       4.32518       3.15077
                        -----------------------------------------
Magnitude (a.u.)       :      6.68254
Magnitude (Debye)      :     16.98568

                             ****ORCA TERMINATED NORMALLY****
TOTAL RUN TIME: 0 days 0 hours 12 minutes 16 seconds 953 msec
