                         Program Version 3.0.3 - RELEASE   -
|  1> ! PW6B95 def2-TZVP GCP(DFT/TZ) ECP{def2-TZVP} Grid7 MORead
|  2> %pal nprocs 2 end
|  3> %method
|  4>  RunTyp Gradient
|  5>  end
|  6> %maxcore 2000
|  7> %moinp "previous.gbw"
|  8> *xyz 0 1
|  9> Pb 0.451004 2.380944 2.668132
| 10> Cl 0.445353 3.079904 0.020048
| 11> Cl 3.057210 2.253691 2.667862
| 12> Cl 0.333870 -0.122519 1.734747
| 13> Cs 2.526897 0.704919 -0.359320
| 14> *
| 15>
| 16>                          ****END OF INPUT****

CARTESIAN COORDINATES (ANGSTROEM)
---------------------------------
  Pb     0.451004    2.380944    2.668132
  Cl     0.445353    3.079904    0.020048
  Cl     3.057210    2.253691    2.667862
  Cl     0.333870   -0.122519    1.734747
  Cs     2.526897    0.704919   -0.359320

 Total Charge           Charge          ....    0
 Multiplicity           Mult            ....    1
 Number of Electrons    NEL             ....   82
 Basis Dimension        Dim             ....  190

ORBITAL ENERGIES
----------------

  NO   OCC          E(Eh)            E(eV)
   0   2.0000    -101.869701     -2772.0155
   1   2.0000    -101.865371     -2771.8977
   2   2.0000    -101.859342     -2771.7336
   3   2.0000      -9.509967      -258.7793
   4   2.0000      -9.505978      -258.6708
   5   2.0000      -9.499585      -258.4969
   6   2.0000      -7.239713      -197.0026
   7   2.0000      -7.237016      -196.9292
   8   2.0000      -7.236709      -196.9209
   9   2.0000      -7.235663      -196.8924
  10   2.0000      -7.233028      -196.8207
  11   2.0000      -7.232733      -196.8127
  12   2.0000      -7.229267      -196.7184
  13   2.0000      -7.226692      -196.6483
  14   2.0000      -7.226382      -196.6399
  15   2.0000      -5.577444      -151.7700
  16   2.0000      -3.401686       -92.5646
  17   2.0000      -3.400792       -92.5402
  18   2.0000      -3.399537       -92.5061
  19   2.0000      -1.066867       -29.0309
  20   2.0000      -0.895379       -24.3645
  21   2.0000      -0.894323       -24.3358
  22   2.0000      -0.890847       -24.2412
  23   2.0000      -0.890560       -24.2334
  24   2.0000      -0.889390       -24.2015
  25   2.0000      -0.785357       -21.3706
  26   2.0000      -0.769739       -20.9457
  27   2.0000      -0.763720       -20.7819
  28   2.0000      -0.539383       -14.6773
  29   2.0000      -0.538813       -14.6618
  30   2.0000      -0.538260       -14.6468
  31   2.0000      -0.512143       -13.9361
  32   2.0000      -0.332886        -9.0583
  33   2.0000      -0.326868        -8.8945
  34   2.0000      -0.318379        -8.6635
  35   2.0000      -0.304746        -8.2926
  36   2.0000      -0.302634        -8.2351
  37   2.0000      -0.290282        -7.8990
  38   2.0000      -0.287440        -7.8217
  39   2.0000      -0.282463        -7.6862
  40   2.0000      -0.281324        -7.6552
  41   0.0000      -0.045238        -1.2310
  42   0.0000      -0.036099        -0.9823
  43   0.0000      -0.032574        -0.8864
  44   0.0000      -0.029233        -0.7955
  45   0.0000       0.004764         0.1296

MULLIKEN ATOMIC CHARGES
-----------------------
   0 Pb:    0.781430
   1 Cl:   -0.535575
   2 Cl:   -0.495041
   3 Cl:   -0.522744
   4 Cs:    0.771930
Sum of atomic charges:   -0.0000000

LOEWDIN ATOMIC CHARGES
----------------------
   0 Pb:    0.248398
   1 Cl:   -0.187863
   2 Cl:   -0.137180
   3 Cl:   -0.153062
   4 Cs:    0.229707

  Mayer bond orders larger than 0.1
B(  0-Pb,  1-Cl) :   0.6196 B(  0-Pb,  2-Cl) :   0.7199 B(  0-Pb,  3-Cl) :   0.6449
B(  1-Cl,  4-Cs) :   0.1630 B(  2-Cl,  4-Cs) :   0.1227 B(  3-Cl,  4-Cs) :   0.1556

FINAL SINGLE POINT ENERGY     -1595.083040932194

DIPOLE MOMENT
-------------
                                X             Y             Z
Electronic contribution:     12.07455     -11.22351     -18.18926
Nuclear contribution   :    -11.22937      10.51910      17.17048
                        -----------------------------------------
Total Dipole Moment    :      0.84518      -0.70441      -1.01878
                        -----------------------------------------
Magnitude (a.u.)       :      1.49948
Magnitude (Debye)      :      3.81137

                             ****ORCA TERMINATED NORMALLY****
TOTAL RUN TIME: 0 days 0 hours 13 minutes 14 seconds 480 msec
