                         Program Version 3.0.3 - RELEASE   -
|  1> ! PW6B95 def2-TZVP GCP(DFT/TZ) ECP{def2-TZVP} Grid7 MORead
|  2> %pal nprocs 2 end
|  3> %method
|  4>  RunTyp Gradient
|  5>  end
|  6> %maxcore 2000
|  7> %moinp "previous.gbw"
|  8> *xyz 0 1
|  9> Pb 3.096614 1.619481 0.738904
| 10> Cl 2.441462 3.220921 2.660148
| 11> Cl 1.215141 2.163766 -0.656050
| 12> Cl 1.787236 -0.384551 1.955213
| 13> Cs -0.702876 1.934587 2.062302
| 14> *
| 15>
| 16>                          ****END OF INPUT****

CARTESIAN COORDINATES (ANGSTROEM)
---------------------------------
  Pb     3.096614    1.619481    0.738904
  Cl     2.441462    3.220921    2.660148
  Cl     1.215141    2.163766   -0.656050
  Cl     1.787236   -0.384551    1.955213
  Cs    -0.702876    1.934587    2.062302

 Total Charge           Charge          ....    0
 Multiplicity           Mult            ....    1
 Number of Electrons    NEL             ....   82
 Basis Dimension        Dim             ....  190

ORBITAL ENERGIES
----------------

  NO   OCC          E(Eh)            E(eV)
   0   2.0000    -101.881779     -2772.3442
   1   2.0000    -101.860654     -2771.7693
   2   2.0000    -101.851599     -2771.5229
   3   2.0000      -9.524064      -259.1629
   4   2.0000      -9.501283      -258.5430
   5   2.0000      -9.491792      -258.2848
   6   2.0000      -7.253559      -197.3794
   7   2.0000      -7.250988      -197.3094
   8   2.0000      -7.250687      -197.3012
   9   2.0000      -7.230857      -196.7616
  10   2.0000      -7.228433      -196.6957
  11   2.0000      -7.228030      -196.6847
  12   2.0000      -7.221347      -196.5028
  13   2.0000      -7.219035      -196.4399
  14   2.0000      -7.218593      -196.4279
  15   2.0000      -5.554764      -151.1528
  16   2.0000      -3.379054       -91.9487
  17   2.0000      -3.378367       -91.9300
  18   2.0000      -3.377246       -91.8995
  19   2.0000      -1.083609       -29.4865
  20   2.0000      -0.885936       -24.1075
  21   2.0000      -0.875209       -23.8157
  22   2.0000      -0.869547       -23.6616
  23   2.0000      -0.869388       -23.6573
  24   2.0000      -0.868648       -23.6371
  25   2.0000      -0.798563       -21.7300
  26   2.0000      -0.767026       -20.8718
  27   2.0000      -0.755301       -20.5528
  28   2.0000      -0.555337       -15.1115
  29   2.0000      -0.554187       -15.0802
  30   2.0000      -0.553433       -15.0597
  31   2.0000      -0.504691       -13.7333
  32   2.0000      -0.343383        -9.3439
  33   2.0000      -0.334133        -9.0922
  34   2.0000      -0.329958        -8.9786
  35   2.0000      -0.306444        -8.3388
  36   2.0000      -0.301982        -8.2173
  37   2.0000      -0.291366        -7.9285
  38   2.0000      -0.284076        -7.7301
  39   2.0000      -0.276419        -7.5217
  40   2.0000      -0.265189        -7.2162
  41   0.0000      -0.040646        -1.1060
  42   0.0000      -0.022153        -0.6028
  43   0.0000      -0.014701        -0.4000
  44   0.0000      -0.005616        -0.1528
  45   0.0000      -0.001433        -0.0390

MULLIKEN ATOMIC CHARGES
-----------------------
   0 Pb:    0.737137
   1 Cl:   -0.510346
   2 Cl:   -0.474351
   3 Cl:   -0.533422
   4 Cs:    0.780981
Sum of atomic charges:   -0.0000000

LOEWDIN ATOMIC CHARGES
----------------------
   0 Pb:    0.046528
   1 Cl:   -0.140956
   2 Cl:   -0.020841
   3 Cl:   -0.192835
   4 Cs:    0.308104

  Mayer bond orders larger than 0.1
B(  0-Pb,  1-Cl) :   0.6786 B(  0-Pb,  2-Cl) :   0.7480 B(  0-Pb,  3-Cl) :   0.6273
B(  1-Cl,  4-Cs) :   0.1406 B(  2-Cl,  4-Cs) :   0.1243 B(  3-Cl,  4-Cs) :   0.1597

FINAL SINGLE POINT ENERGY     -1595.081238437963

DIPOLE MOMENT
-------------
                                X             Y             Z
Electronic contribution:    -36.86020       6.90596       4.19880
Nuclear contribution   :     34.41508      -6.36775      -3.99946
                        -----------------------------------------
Total Dipole Moment    :     -2.44512       0.53821       0.19934
                        -----------------------------------------
Magnitude (a.u.)       :      2.51158
Magnitude (Debye)      :      6.38392

                             ****ORCA TERMINATED NORMALLY****
TOTAL RUN TIME: 0 days 0 hours 13 minutes 6 seconds 629 msec
