                         Program Version 3.0.3 - RELEASE   -
|  1> ! RIJCOSX RI-B2PLYP D3BJ def2-TZVP ECP{def2-TZVP} TIGHTSCF Grid5 FinalGrid6 MORead
|  2> %maxcore 4000
|  3> %moinp "previous.gbw"
|  4> *xyz -1 1
|  5> C 3.321334 3.304660 2.430157
|  6> N 2.356571 2.328752 1.891132
|  7> H 3.929482 2.825089 3.202898
|  8> H 2.779051 4.148026 2.867131
|  9> H 3.970752 3.667461 1.628343
| 10> H 1.712427 1.919960 2.626954
| 11> H 2.798301 1.476145 1.466883
| 12> H 1.726191 2.717573 1.143366
| 13> Pb 0.034436 -0.205450 0.698731
| 14> Cl 2.775367 -0.507494 0.814217
| 15> Cl 0.255653 2.913998 -0.258710
| 16> Cl 0.346069 0.632050 3.511534
| 17> Cl -3.305142 -0.286613 -0.036653
| 18> Cl -0.011275 -1.171242 -2.199043
| 19> Cl -0.581255 -2.762400 1.867145
| 20> N -2.185808 -3.054212 -0.959335
| 21> C -3.018599 -3.892984 -1.852407
| 22> H -2.697680 -2.199715 -0.614166
| 23> H -1.345672 -2.675212 -1.453465
| 24> H -3.863008 -4.284793 -1.282203
| 25> H -2.403708 -4.719219 -2.215644
| 26> H -3.366846 -3.277457 -2.686457
| 27> H -1.855008 -3.591944 -0.148281
| 28> Cl 3.298132 -4.820991 1.520203
| 29> Cl 0.980759 -5.256225 4.867800
| 30> Pb 0.314131 -5.457300 1.493511
| 31> N 2.161285 -2.658962 3.515767
| 32> C 3.006676 -1.740565 4.311813
| 33> H 2.698023 -3.156655 2.770259
| 34> H 1.390718 -2.163400 3.045648
| 35> H 3.799912 -2.319606 4.793333
| 36> H 2.384520 -1.246095 5.060700
| 37> H 3.427402 -0.991699 3.638613
| 38> H 1.731703 -3.427574 4.095222
| 39> Cl 0.327092 -5.430636 -1.276542
| 40> H -2.444419 -8.567556 -2.232135
| 41> H -0.598109 -7.323819 -1.165277
| 42> H -1.004862 -9.612620 -2.073837
| 43> C -1.775778 -9.065444 -1.523604
| 44> N -1.147567 -8.055720 -0.651573
| 45> Cl -2.537481 -5.960337 1.060942
| 46> H -1.842497 -7.478800 -0.094428
| 47> H -0.483324 -8.457680 0.056334
| 48> H -2.352281 -9.766255 -0.913124
| 49> Cl 0.914590 -8.589722 1.607679
| 50> H -3.020852 1.137851 -3.759427
| 51> H -2.443836 0.935457 -1.388789
| 52> C -2.421148 1.915242 -3.276964
| 53> H -3.072919 2.741318 -2.978333
| 54> N -1.760461 1.345922 -2.088558
| 55> H -1.130632 0.530708 -2.323343
| 56> H -1.666594 2.281032 -3.979276
| 57> H -1.165922 2.035435 -1.571092
| 58> H 3.622704 -8.508951 4.939340
| 59> H 2.344608 -7.817453 2.937850
| 60> C 4.032137 -7.791101 4.222778
| 61> H 4.696529 -8.309487 3.525223
| 62> N 2.932785 -7.146076 3.481813
| 63> H 2.277052 -6.592786 4.110347
| 64> H 4.597499 -7.025510 4.762093
| 65> H 3.269849 -6.425562 2.787786
| 66> *
| 67>
| 68>                          ****END OF INPUT****

CARTESIAN COORDINATES (ANGSTROEM)
---------------------------------
  C      3.321334    3.304660    2.430157
  N      2.356571    2.328752    1.891132
  H      3.929482    2.825089    3.202898
  H      2.779051    4.148026    2.867131
  H      3.970752    3.667461    1.628343
  H      1.712427    1.919960    2.626954
  H      2.798301    1.476145    1.466883
  H      1.726191    2.717573    1.143366
  Pb     0.034436   -0.205450    0.698731
  Cl     2.775367   -0.507494    0.814217
  Cl     0.255653    2.913998   -0.258710
  Cl     0.346069    0.632050    3.511534
  Cl    -3.305142   -0.286613   -0.036653
  Cl    -0.011275   -1.171242   -2.199043
  Cl    -0.581255   -2.762400    1.867145
  N     -2.185808   -3.054212   -0.959335
  C     -3.018599   -3.892984   -1.852407
  H     -2.697680   -2.199715   -0.614166
  H     -1.345672   -2.675212   -1.453465
  H     -3.863008   -4.284793   -1.282203
  H     -2.403708   -4.719219   -2.215644
  H     -3.366846   -3.277457   -2.686457
  H     -1.855008   -3.591944   -0.148281
  Cl     3.298132   -4.820991    1.520203
  Cl     0.980759   -5.256225    4.867800
  Pb     0.314131   -5.457300    1.493511
  N      2.161285   -2.658962    3.515767
  C      3.006676   -1.740565    4.311813
  H      2.698023   -3.156655    2.770259
  H      1.390718   -2.163400    3.045648
  H      3.799912   -2.319606    4.793333
  H      2.384520   -1.246095    5.060700
  H      3.427402   -0.991699    3.638613
  H      1.731703   -3.427574    4.095222
  Cl     0.327092   -5.430636   -1.276542
  H     -2.444419   -8.567556   -2.232135
  H     -0.598109   -7.323819   -1.165277
  H     -1.004862   -9.612620   -2.073837
  C     -1.775778   -9.065444   -1.523604
  N     -1.147567   -8.055720   -0.651573
  Cl    -2.537481   -5.960337    1.060942
  H     -1.842497   -7.478800   -0.094428
  H     -0.483324   -8.457680    0.056334
  H     -2.352281   -9.766255   -0.913124
  Cl     0.914590   -8.589722    1.607679
  H     -3.020852    1.137851   -3.759427
  H     -2.443836    0.935457   -1.388789
  C     -2.421148    1.915242   -3.276964
  H     -3.072919    2.741318   -2.978333
  N     -1.760461    1.345922   -2.088558
  H     -1.130632    0.530708   -2.323343
  H     -1.666594    2.281032   -3.979276
  H     -1.165922    2.035435   -1.571092
  H      3.622704   -8.508951    4.939340
  H      2.344608   -7.817453    2.937850
  C      4.032137   -7.791101    4.222778
  H      4.696529   -8.309487    3.525223
  N      2.932785   -7.146076    3.481813
  H      2.277052   -6.592786    4.110347
  H      4.597499   -7.025510    4.762093
  H      3.269849   -6.425562    2.787786

 Total Charge           Charge          ....   -1
 Multiplicity           Mult            ....    1
 Number of Electrons    NEL             ....  346
 Basis Dimension        Dim             .... 1095

ORBITAL ENERGIES
----------------

  NO   OCC          E(Eh)            E(eV)
   0   2.0000    -102.757439     -2796.1721
   1   2.0000    -102.742262     -2795.7591
   2   2.0000    -102.740195     -2795.7028
   3   2.0000    -102.732912     -2795.5046
   4   2.0000    -102.731234     -2795.4590
   5   2.0000    -102.731023     -2795.4533
   6   2.0000    -102.728375     -2795.3812
   7   2.0000    -102.727486     -2795.3570
   8   2.0000    -102.725797     -2795.3110
   9   2.0000    -102.717505     -2795.0854
  10   2.0000    -102.716644     -2795.0620
  11   2.0000     -14.843355      -403.9082
  12   2.0000     -14.839818      -403.8120
  13   2.0000     -14.831813      -403.5941
  14   2.0000     -14.831649      -403.5897
  15   2.0000     -14.829932      -403.5430
  16   2.0000     -14.829541      -403.5323
  17   2.0000     -10.614648      -288.8393
  18   2.0000     -10.611996      -288.7671
  19   2.0000     -10.604189      -288.5547
  20   2.0000     -10.603662      -288.5403
  21   2.0000     -10.581960      -287.9498
  22   2.0000     -10.581470      -287.9364
  23   2.0000      -9.764970      -265.7184
  24   2.0000      -9.749319      -265.2925
  25   2.0000      -9.747158      -265.2337
  26   2.0000      -9.740143      -265.0428
  27   2.0000      -9.738444      -264.9965
  28   2.0000      -9.738027      -264.9852
  29   2.0000      -9.735604      -264.9193
  30   2.0000      -9.734678      -264.8941
  31   2.0000      -9.732444      -264.8333
  32   2.0000      -9.724640      -264.6209
  33   2.0000      -9.723665      -264.5944
  34   2.0000      -7.401704      -201.4106
  35   2.0000      -7.400462      -201.3768
  36   2.0000      -7.400424      -201.3758
  37   2.0000      -7.386131      -200.9868
  38   2.0000      -7.385062      -200.9578
  39   2.0000      -7.384583      -200.9447
  40   2.0000      -7.383970      -200.9280
  41   2.0000      -7.382912      -200.8992
  42   2.0000      -7.382441      -200.8864
  43   2.0000      -7.376495      -200.7246
  44   2.0000      -7.376333      -200.7202
  45   2.0000      -7.375652      -200.7017
  46   2.0000      -7.374843      -200.6797
  47   2.0000      -7.374591      -200.6728
  48   2.0000      -7.374491      -200.6701
  49   2.0000      -7.374035      -200.6577
  50   2.0000      -7.373962      -200.6557
  51   2.0000      -7.373502      -200.6432
  52   2.0000      -7.371821      -200.5975
  53   2.0000      -7.371696      -200.5940
  54   2.0000      -7.371225      -200.5812
  55   2.0000      -7.370914      -200.5728
  56   2.0000      -7.370735      -200.5679
  57   2.0000      -7.370316      -200.5565
  58   2.0000      -7.368961      -200.5196
  59   2.0000      -7.368449      -200.5057
  60   2.0000      -7.367938      -200.4918
  61   2.0000      -7.360934      -200.3012
  62   2.0000      -7.360564      -200.2911
  63   2.0000      -7.360457      -200.2882
  64   2.0000      -7.359947      -200.2743
  65   2.0000      -7.359591      -200.2647
  66   2.0000      -7.359514      -200.2626
  67   2.0000      -5.706272      -155.2756
  68   2.0000      -5.703929      -155.2118
  69   2.0000      -3.477477       -94.6270
  70   2.0000      -3.476081       -94.5890
  71   2.0000      -3.475835       -94.5823
  72   2.0000      -3.475017       -94.5600
  73   2.0000      -3.473842       -94.5280
  74   2.0000      -3.473559       -94.5204
  75   2.0000      -1.025696       -27.9106
  76   2.0000      -1.022812       -27.8321
  77   2.0000      -1.014905       -27.6170
  78   2.0000      -1.013568       -27.5806
  79   2.0000      -1.009938       -27.4818
  80   2.0000      -1.008214       -27.4349
  81   2.0000      -0.868975       -23.6460
  82   2.0000      -0.866727       -23.5848
  83   2.0000      -0.865949       -23.5637
  84   2.0000      -0.865102       -23.5406
  85   2.0000      -0.864515       -23.5246
  86   2.0000      -0.864376       -23.5209
  87   2.0000      -0.863002       -23.4835
  88   2.0000      -0.862637       -23.4735
  89   2.0000      -0.862078       -23.4583
  90   2.0000      -0.860888       -23.4260
  91   2.0000      -0.779870       -21.2213
  92   2.0000      -0.770827       -20.9753
  93   2.0000      -0.769063       -20.9273
  94   2.0000      -0.759518       -20.6675
  95   2.0000      -0.759347       -20.6629
  96   2.0000      -0.756285       -20.5796
  97   2.0000      -0.755349       -20.5541
  98   2.0000      -0.750232       -20.4148
  99   2.0000      -0.748183       -20.3591
 100   2.0000      -0.746401       -20.3106
 101   2.0000      -0.744935       -20.2707
 102   2.0000      -0.743120       -20.2213
 103   2.0000      -0.740469       -20.1492
 104   2.0000      -0.737239       -20.0613
 105   2.0000      -0.736233       -20.0339
 106   2.0000      -0.726215       -19.7613
 107   2.0000      -0.725492       -19.7416
 108   2.0000      -0.558704       -15.2031
 109   2.0000      -0.556383       -15.1400
 110   2.0000      -0.551553       -15.0085
 111   2.0000      -0.549221       -14.9451
 112   2.0000      -0.548297       -14.9199
 113   2.0000      -0.547701       -14.9037
 114   2.0000      -0.546404       -14.8684
 115   2.0000      -0.544868       -14.8266
 116   2.0000      -0.542780       -14.7698
 117   2.0000      -0.541578       -14.7371
 118   2.0000      -0.533579       -14.5194
 119   2.0000      -0.532452       -14.4888
 120   2.0000      -0.497118       -13.5273
 121   2.0000      -0.494391       -13.4531
 122   2.0000      -0.485037       -13.1985
 123   2.0000      -0.484044       -13.1715
 124   2.0000      -0.468117       -12.7381
 125   2.0000      -0.464708       -12.6453
 126   2.0000      -0.452037       -12.3006
 127   2.0000      -0.437066       -11.8932
 128   2.0000      -0.422751       -11.5036
 129   2.0000      -0.420450       -11.4410
 130   2.0000      -0.420410       -11.4399
 131   2.0000      -0.417744       -11.3674
 132   2.0000      -0.411860       -11.2073
 133   2.0000      -0.411574       -11.1995
 134   2.0000      -0.410284       -11.1644
 135   2.0000      -0.409494       -11.1429
 136   2.0000      -0.397847       -10.8260
 137   2.0000      -0.396959       -10.8018
 138   2.0000      -0.391352       -10.6492
 139   2.0000      -0.390743       -10.6326
 140   2.0000      -0.287390        -7.8203
 141   2.0000      -0.274619        -7.4728
 142   2.0000      -0.268856        -7.3160
 143   2.0000      -0.264652        -7.2015
 144   2.0000      -0.258181        -7.0255
 145   2.0000      -0.255776        -6.9600
 146   2.0000      -0.255447        -6.9511
 147   2.0000      -0.248296        -6.7565
 148   2.0000      -0.246059        -6.6956
 149   2.0000      -0.243652        -6.6301
 150   2.0000      -0.241446        -6.5701
 151   2.0000      -0.240640        -6.5481
 152   2.0000      -0.239109        -6.5065
 153   2.0000      -0.236968        -6.4482
 154   2.0000      -0.234860        -6.3909
 155   2.0000      -0.232082        -6.3153
 156   2.0000      -0.231350        -6.2954
 157   2.0000      -0.230878        -6.2825
 158   2.0000      -0.229717        -6.2509
 159   2.0000      -0.229231        -6.2377
 160   2.0000      -0.228804        -6.2261
 161   2.0000      -0.228074        -6.2062
 162   2.0000      -0.225263        -6.1297
 163   2.0000      -0.223711        -6.0875
 164   2.0000      -0.222567        -6.0564
 165   2.0000      -0.222165        -6.0454
 166   2.0000      -0.221638        -6.0311
 167   2.0000      -0.220389        -5.9971
 168   2.0000      -0.219170        -5.9639
 169   2.0000      -0.216637        -5.8950
 170   2.0000      -0.216509        -5.8915
 171   2.0000      -0.193153        -5.2560
 172   2.0000      -0.184864        -5.0304
 173   0.0000       0.097687         2.6582
 174   0.0000       0.111301         3.0287
 175   0.0000       0.117869         3.2074
 176   0.0000       0.123162         3.3514
 177   0.0000       0.125984         3.4282

MULLIKEN ATOMIC CHARGES
-----------------------
   0 C :   -0.251566
   1 N :   -0.290210
   2 H :    0.136148
   3 H :    0.141809
   4 H :    0.139321
   5 H :    0.270536
   6 H :    0.269740
   7 H :    0.282813
   8 Pb:    0.995166
   9 Cl:   -0.604794
  10 Cl:   -0.716738
  11 Cl:   -0.659618
  12 Cl:   -0.701512
  13 Cl:   -0.666381
  14 Cl:   -0.590660
  15 N :   -0.273980
  16 C :   -0.240280
  17 H :    0.275775
  18 H :    0.299118
  19 H :    0.147996
  20 H :    0.137150
  21 H :    0.121639
  22 H :    0.292056
  23 Cl:   -0.666672
  24 Cl:   -0.703437
  25 Pb:    0.993211
  26 N :   -0.277617
  27 C :   -0.236055
  28 H :    0.293045
  29 H :    0.295948
  30 H :    0.120455
  31 H :    0.151814
  32 H :    0.137855
  33 H :    0.274504
  34 Cl:   -0.607906
  35 H :    0.136573
  36 H :    0.269267
  37 H :    0.140543
  38 C :   -0.250857
  39 N :   -0.289834
  40 Cl:   -0.655077
  41 H :    0.275749
  42 H :    0.280409
  43 H :    0.141822
  44 Cl:   -0.713285
  45 H :    0.135218
  46 H :    0.272197
  47 C :   -0.244892
  48 H :    0.136757
  49 N :   -0.284965
  50 H :    0.262502
  51 H :    0.137135
  52 H :    0.274340
  53 H :    0.136778
  54 H :    0.276680
  55 C :   -0.245962
  56 H :    0.136714
  57 N :   -0.286666
  58 H :    0.271021
  59 H :    0.135091
  60 H :    0.264070
Sum of atomic charges:   -1.0000000

LOEWDIN ATOMIC CHARGES
----------------------
   0 C :   -0.298110
   1 N :    0.062579
   2 H :    0.117498
   3 H :    0.119423
   4 H :    0.117827
   5 H :    0.151332
   6 H :    0.149908
   7 H :    0.143592
   8 Pb:    0.089218
   9 Cl:   -0.321181
  10 Cl:   -0.520294
  11 Cl:   -0.436254
  12 Cl:   -0.527229
  13 Cl:   -0.429164
  14 Cl:   -0.155718
  15 N :    0.091321
  16 C :   -0.303208
  17 H :    0.148927
  18 H :    0.156793
  19 H :    0.117051
  20 H :    0.111734
  21 H :    0.112164
  22 H :    0.173240
  23 Cl:   -0.431957
  24 Cl:   -0.537353
  25 Pb:    0.069187
  26 N :    0.092642
  27 C :   -0.301454
  28 H :    0.157819
  29 H :    0.173515
  30 H :    0.111615
  31 H :    0.118628
  32 H :    0.111615
  33 H :    0.152457
  34 Cl:   -0.329479
  35 H :    0.117664
  36 H :    0.152332
  37 H :    0.118101
  38 C :   -0.297699
  39 N :    0.063931
  40 Cl:   -0.412824
  41 H :    0.147148
  42 H :    0.149819
  43 H :    0.119304
  44 Cl:   -0.504086
  45 H :    0.118326
  46 H :    0.139915
  47 C :   -0.299550
  48 H :    0.117308
  49 N :    0.061024
  50 H :    0.142969
  51 H :    0.117524
  52 H :    0.148947
  53 H :    0.117387
  54 H :    0.146214
  55 C :   -0.300462
  56 H :    0.116962
  57 N :    0.060225
  58 H :    0.139728
  59 H :    0.118059
  60 H :    0.143051

  Mayer bond orders larger than 0.1
B(  0-C ,  1-N ) :   0.9350 B(  0-C ,  2-H ) :   0.9750 B(  0-C ,  3-H ) :   0.9748
B(  0-C ,  4-H ) :   0.9745 B(  1-N ,  5-H ) :   0.7891 B(  1-N ,  6-H ) :   0.8089
B(  1-N ,  7-H ) :   0.7967 B(  5-H , 11-Cl) :   0.2248 B(  6-H ,  9-Cl) :   0.1896
B(  7-H , 10-Cl) :   0.1911 B(  8-Pb,  9-Cl) :   0.4829 B(  8-Pb, 10-Cl) :   0.1780
B(  8-Pb, 11-Cl) :   0.3527 B(  8-Pb, 12-Cl) :   0.1416 B(  8-Pb, 13-Cl) :   0.2649
B(  8-Pb, 14-Cl) :   0.2989 B( 10-Cl, 52-H ) :   0.1649 B( 12-Cl, 17-H ) :   0.2020
B( 12-Cl, 46-H ) :   0.2392 B( 13-Cl, 18-H ) :   0.1317 B( 13-Cl, 50-H ) :   0.2314
B( 14-Cl, 25-Pb) :   0.2999 B( 15-N , 16-C ) :   0.9306 B( 15-N , 17-H ) :   0.8002
B( 15-N , 18-H ) :   0.8239 B( 15-N , 22-H ) :   0.8690 B( 16-C , 19-H ) :   0.9700
B( 16-C , 20-H ) :   0.9669 B( 16-C , 21-H ) :   0.9705 B( 23-Cl, 25-Pb) :   0.2652
B( 23-Cl, 28-H ) :   0.1391 B( 23-Cl, 60-H ) :   0.2238 B( 24-Cl, 25-Pb) :   0.1373
B( 24-Cl, 33-H ) :   0.1969 B( 24-Cl, 58-H ) :   0.2480 B( 25-Pb, 34-Cl) :   0.4799
B( 25-Pb, 40-Cl) :   0.3405 B( 25-Pb, 44-Cl) :   0.1964 B( 26-N , 27-C ) :   0.9259
B( 26-N , 28-H ) :   0.8247 B( 26-N , 29-H ) :   0.8655 B( 26-N , 33-H ) :   0.8061
B( 27-C , 30-H ) :   0.9704 B( 27-C , 31-H ) :   0.9690 B( 27-C , 32-H ) :   0.9660
B( 34-Cl, 36-H ) :   0.1884 B( 35-H , 38-C ) :   0.9749 B( 36-H , 39-N ) :   0.8111
B( 37-H , 38-C ) :   0.9742 B( 38-C , 39-N ) :   0.9329 B( 38-C , 43-H ) :   0.9747
B( 39-N , 41-H ) :   0.7808 B( 39-N , 42-H ) :   0.8077 B( 40-Cl, 41-H ) :   0.2282
B( 42-H , 44-Cl) :   0.1780 B( 44-Cl, 54-H ) :   0.1634 B( 45-H , 47-C ) :   0.9749
B( 46-H , 49-N ) :   0.7755 B( 47-C , 48-H ) :   0.9757 B( 47-C , 49-N ) :   0.9394
B( 47-C , 51-H ) :   0.9749 B( 49-N , 50-H ) :   0.7893 B( 49-N , 52-H ) :   0.8197
B( 53-H , 55-C ) :   0.9759 B( 54-H , 57-N ) :   0.8191 B( 55-C , 56-H ) :   0.9749
B( 55-C , 57-N ) :   0.9377 B( 55-C , 59-H ) :   0.9751 B( 57-N , 58-H ) :   0.7711
B( 57-N , 60-H ) :   0.7922

MP2 TOTAL ENERGY:    -6025.869335193 Eh
Dispersion correction           -0.080481113
FINAL SINGLE POINT ENERGY     -6025.949816306297

DIPOLE MOMENT
-------------
                                X             Y             Z
Electronic contribution:    -28.62981       4.46401      30.58241
Nuclear contribution   :     29.97250      -4.81290     -32.09088
                        -----------------------------------------
Total Dipole Moment    :      1.34269      -0.34890      -1.50847
                        -----------------------------------------
Magnitude (a.u.)       :      2.04939
Magnitude (Debye)      :      5.20914

                             ****ORCA TERMINATED NORMALLY****
TOTAL RUN TIME: 0 days 1 hours 8 minutes 39 seconds 373 msec
