                         Program Version 3.0.3 - RELEASE   -
|  1> ! PW6B95 def2-TZVP GCP(DFT/TZ) ECP{def2-TZVP} Grid7 MORead
|  2> %pal nprocs 2 end
|  3> %method
|  4>  RunTyp Gradient
|  5>  end
|  6> %maxcore 2000
|  7> %moinp "previous.gbw"
|  8> *xyz 0 1
|  9> Pb 0.379744 0.298172 0.507203
| 10> Cl 2.998777 0.377217 0.961895
| 11> Cl 0.487310 2.516103 -0.715098
| 12> Cl -0.133924 1.464325 2.749162
| 13> Cs 4.004377 4.736500 3.495835
| 14> *
| 15>
| 16>                          ****END OF INPUT****

CARTESIAN COORDINATES (ANGSTROEM)
---------------------------------
  Pb     0.379744    0.298172    0.507203
  Cl     2.998777    0.377217    0.961895
  Cl     0.487310    2.516103   -0.715098
  Cl    -0.133924    1.464325    2.749162
  Cs     4.004377    4.736500    3.495835

 Total Charge           Charge          ....    0
 Multiplicity           Mult            ....    1
 Number of Electrons    NEL             ....   82
 Basis Dimension        Dim             ....  190

ORBITAL ENERGIES
----------------

  NO   OCC          E(Eh)            E(eV)
   0   2.0000    -101.811331     -2770.4272
   1   2.0000    -101.809886     -2770.3878
   2   2.0000    -101.805269     -2770.2622
   3   2.0000      -9.451793      -257.1964
   4   2.0000      -9.450539      -257.1622
   5   2.0000      -9.445332      -257.0206
   6   2.0000      -7.181529      -195.4193
   7   2.0000      -7.180362      -195.3876
   8   2.0000      -7.178784      -195.3446
   9   2.0000      -7.178595      -195.3395
  10   2.0000      -7.177397      -195.3069
  11   2.0000      -7.177310      -195.3045
  12   2.0000      -7.175043      -195.2428
  13   2.0000      -7.172408      -195.1711
  14   2.0000      -7.172194      -195.1653
  15   2.0000      -5.509832      -149.9301
  16   2.0000      -3.334022       -90.7234
  17   2.0000      -3.333534       -90.7101
  18   2.0000      -3.331887       -90.6652
  19   2.0000      -1.164761       -31.6948
  20   2.0000      -0.831469       -22.6254
  21   2.0000      -0.829795       -22.5799
  22   2.0000      -0.824052       -22.4236
  23   2.0000      -0.823486       -22.4082
  24   2.0000      -0.822250       -22.3746
  25   2.0000      -0.730571       -19.8798
  26   2.0000      -0.710690       -19.3389
  27   2.0000      -0.706703       -19.2304
  28   2.0000      -0.633615       -17.2415
  29   2.0000      -0.633414       -17.2361
  30   2.0000      -0.631074       -17.1724
  31   2.0000      -0.452031       -12.3004
  32   2.0000      -0.279900        -7.6165
  33   2.0000      -0.276531        -7.5248
  34   2.0000      -0.265354        -7.2206
  35   2.0000      -0.247510        -6.7351
  36   2.0000      -0.247119        -6.7245
  37   2.0000      -0.232180        -6.3179
  38   2.0000      -0.230432        -6.2704
  39   2.0000      -0.228306        -6.2125
  40   2.0000      -0.218754        -5.9526
  41   0.0000      -0.091149        -2.4803
  42   0.0000      -0.035332        -0.9614
  43   0.0000      -0.034497        -0.9387
  44   0.0000      -0.034436        -0.9371
  45   0.0000      -0.029463        -0.8017

MULLIKEN ATOMIC CHARGES
-----------------------
   0 Pb:    0.766251
   1 Cl:   -0.583877
   2 Cl:   -0.534887
   3 Cl:   -0.560483
   4 Cs:    0.912997
Sum of atomic charges:   -0.0000000

LOEWDIN ATOMIC CHARGES
----------------------
   0 Pb:   -0.032774
   1 Cl:   -0.298294
   2 Cl:   -0.219489
   3 Cl:   -0.249080
   4 Cs:    0.799637

  Mayer bond orders larger than 0.1
B(  0-Pb,  1-Cl) :   0.6393 B(  0-Pb,  2-Cl) :   0.7493 B(  0-Pb,  3-Cl) :   0.6893

FINAL SINGLE POINT ENERGY     -1595.023683071780

DIPOLE MOMENT
-------------
                                X             Y             Z
Electronic contribution:     65.98397      65.56598      61.68473
Nuclear contribution   :    -61.69127     -60.60733     -57.80935
                        -----------------------------------------
Total Dipole Moment    :      4.29270       4.95865       3.87538
                        -----------------------------------------
Magnitude (a.u.)       :      7.61801
Magnitude (Debye)      :     19.36344

                             ****ORCA TERMINATED NORMALLY****
TOTAL RUN TIME: 0 days 0 hours 12 minutes 11 seconds 54 msec
