                         Program Version 3.0.3 - RELEASE   -
|  1> ! RIJCOSX RI-B2PLYP D3BJ def2-TZVP ECP{def2-TZVP} TIGHTSCF Grid5 FinalGrid6 SlowConv MORead
|  2> %method
|  3>  RunTyp Gradient
|  4>  end
|  5> %maxcore 1000
|  6> %moinp "previous.gbw"
|  7> *xyz 0 1
|  8> C -2.613000 0.343402 -0.426019
|  9> N -3.296050 0.893947 -1.587370
| 10> H -4.087790 1.450340 -1.174450
| 11> H -3.571960 0.098765 -2.144670
| 12> H -2.702030 1.500820 -2.070790
| 13> H -3.009440 -0.454036 0.152965
| 14> H -2.187450 1.186920 0.117775
| 15> H -1.737600 -0.233482 -0.748060
| 16> Pb -2.890520 -2.580660 -2.297180
| 17> Cl -1.692230 -4.576990 -2.981420
| 18> Cl -2.029740 -0.514749 -3.270250
| 19> Cl -4.015120 -2.780900 -0.054578
| 20> *
| 21>
| 22>                          ****END OF INPUT****

CARTESIAN COORDINATES (ANGSTROEM)
---------------------------------
  C     -2.613000    0.343402   -0.426019
  N     -3.296050    0.893947   -1.587370
  H     -4.087790    1.450340   -1.174450
  H     -3.571960    0.098765   -2.144670
  H     -2.702030    1.500820   -2.070790
  H     -3.009440   -0.454036    0.152965
  H     -2.187450    1.186920    0.117775
  H     -1.737600   -0.233482   -0.748060
  Pb    -2.890520   -2.580660   -2.297180
  Cl    -1.692230   -4.576990   -2.981420
  Cl    -2.029740   -0.514749   -3.270250
  Cl    -4.015120   -2.780900   -0.054578

 Total Charge           Charge          ....    0
 Multiplicity           Mult            ....    1
 Number of Electrons    NEL             ....   92
 Basis Dimension        Dim             ....  259

ORBITAL ENERGIES
----------------

  NO   OCC          E(Eh)            E(eV)
   0   2.0000    -102.857607     -2798.8978
   1   2.0000    -102.831255     -2798.1807
   2   2.0000    -102.826927     -2798.0629
   3   2.0000     -15.014651      -408.5694
   4   2.0000     -10.707209      -291.3580
   5   2.0000      -9.869558      -268.5643
   6   2.0000      -9.839077      -267.7349
   7   2.0000      -9.835102      -267.6267
   8   2.0000      -7.505775      -204.2425
   9   2.0000      -7.504739      -204.2143
  10   2.0000      -7.504535      -204.2088
  11   2.0000      -7.476146      -203.4363
  12   2.0000      -7.474311      -203.3863
  13   2.0000      -7.473951      -203.3766
  14   2.0000      -7.471691      -203.3151
  15   2.0000      -7.470496      -203.2825
  16   2.0000      -7.470338      -203.2782
  17   2.0000      -5.781228      -157.3152
  18   2.0000      -3.554894       -96.7336
  19   2.0000      -3.551288       -96.6355
  20   2.0000      -3.550213       -96.6062
  21   2.0000      -1.206751       -32.8374
  22   2.0000      -0.964586       -26.2477
  23   2.0000      -0.956401       -26.0250
  24   2.0000      -0.951293       -25.8860
  25   2.0000      -0.944175       -25.6923
  26   2.0000      -0.942226       -25.6393
  27   2.0000      -0.894358       -24.3367
  28   2.0000      -0.880719       -23.9656
  29   2.0000      -0.852325       -23.1929
  30   2.0000      -0.841045       -22.8860
  31   2.0000      -0.747970       -20.3533
  32   2.0000      -0.729292       -19.8451
  33   2.0000      -0.635058       -17.2808
  34   2.0000      -0.554416       -15.0864
  35   2.0000      -0.546038       -14.8585
  36   2.0000      -0.502692       -13.6789
  37   2.0000      -0.402383       -10.9494
  38   2.0000      -0.385028       -10.4771
  39   2.0000      -0.374022       -10.1777
  40   2.0000      -0.357854        -9.7377
  41   2.0000      -0.336705        -9.1622
  42   2.0000      -0.330262        -8.9869
  43   2.0000      -0.325960        -8.8698
  44   2.0000      -0.323077        -8.7914
  45   2.0000      -0.238502        -6.4900
  46   0.0000      -0.028711        -0.7813
  47   0.0000      -0.007840        -0.2133
  48   0.0000       0.039826         1.0837
  49   0.0000       0.052025         1.4157
  50   0.0000       0.067859         1.8465

Dispersion correction            ...

MULLIKEN ATOMIC CHARGES
-----------------------
   0 C :   -0.371560
   1 N :   -0.218794
   2 H :    0.283140
   3 H :    0.299479
   4 H :    0.284027
   5 H :    0.213790
   6 H :    0.155630
   7 H :    0.187443
   8 Pb:    0.714897
   9 Cl:   -0.464964
  10 Cl:   -0.550352
  11 Cl:   -0.532736
Sum of atomic charges:   -0.0000000

LOEWDIN ATOMIC CHARGES
----------------------
   0 C :   -0.344602
   1 N :    0.113464
   2 H :    0.214955
   3 H :    0.162093
   4 H :    0.174504
   5 H :    0.120050
   6 H :    0.124942
   7 H :    0.134597
   8 Pb:   -0.212560
   9 Cl:   -0.124649
  10 Cl:   -0.130860
  11 Cl:   -0.231936

  Mayer bond orders larger than 0.1
B(  0-C ,  1-N ) :   0.8850 B(  0-C ,  5-H ) :   0.9132 B(  0-C ,  6-H ) :   0.9412
B(  0-C ,  7-H ) :   0.9377 B(  1-N ,  2-H ) :   0.8582 B(  1-N ,  3-H ) :   0.8182
B(  1-N ,  4-H ) :   0.8762 B(  8-Pb,  9-Cl) :   0.8349 B(  8-Pb, 10-Cl) :   0.4993
B(  8-Pb, 11-Cl) :   0.6529

MP2 TOTAL ENERGY:    -1669.508577809 Eh
Dispersion correction           -0.013872278
FINAL SINGLE POINT ENERGY     -1669.522450087418

DIPOLE MOMENT
-------------
                                X             Y             Z
Electronic contribution:    -13.17477     -56.78462     -32.97465
Nuclear contribution   :     12.38295      61.41859      33.60923
                        -----------------------------------------
Total Dipole Moment    :     -0.79182       4.63398       0.63458
                        -----------------------------------------
Magnitude (a.u.)       :      4.74378
Magnitude (Debye)      :     12.05773

                             ****ORCA TERMINATED NORMALLY****
TOTAL RUN TIME: 0 days 0 hours 13 minutes 16 seconds 898 msec
