                         Program Version 3.0.3 - RELEASE   -
|  1> ! RIJCOSX RI-B2PLYP D3BJ def2-TZVP ECP{def2-TZVP} TIGHTSCF Grid5 FinalGrid6 SlowConv MORead
|  2> %method
|  3>  RunTyp Gradient
|  4>  end
|  5> %maxcore 1000
|  6> %moinp "previous.gbw"
|  7> *xyz 0 1
|  8> C -0.825143 1.161160 -1.743980
|  9> N -0.615877 -0.325527 -1.417870
| 10> H -1.450530 -0.622084 -0.856567
| 11> H 0.267721 -0.584441 -0.926534
| 12> H -0.449599 -0.788554 -2.298700
| 13> H -1.069750 1.598270 -0.754533
| 14> H -1.659280 1.230840 -2.457900
| 15> H 0.083243 1.518980 -2.229010
| 16> Pb -3.112040 -2.543290 -2.391720
| 17> Cl -0.753440 -3.501800 -2.641850
| 18> Cl -3.188650 -0.276280 -1.664120
| 19> Cl -4.535470 -4.074190 -0.963729
| 20> *
| 21>
| 22>                          ****END OF INPUT****

CARTESIAN COORDINATES (ANGSTROEM)
---------------------------------
  C     -0.825143    1.161160   -1.743980
  N     -0.615877   -0.325527   -1.417870
  H     -1.450530   -0.622084   -0.856567
  H      0.267721   -0.584441   -0.926534
  H     -0.449599   -0.788554   -2.298700
  H     -1.069750    1.598270   -0.754533
  H     -1.659280    1.230840   -2.457900
  H      0.083243    1.518980   -2.229010
  Pb    -3.112040   -2.543290   -2.391720
  Cl    -0.753440   -3.501800   -2.641850
  Cl    -3.188650   -0.276280   -1.664120
  Cl    -4.535470   -4.074190   -0.963729

 Total Charge           Charge          ....    0
 Multiplicity           Mult            ....    1
 Number of Electrons    NEL             ....   92
 Basis Dimension        Dim             ....  259

ORBITAL ENERGIES
----------------

  NO   OCC          E(Eh)            E(eV)
   0   2.0000    -102.875642     -2799.3885
   1   2.0000    -102.838905     -2798.3889
   2   2.0000    -102.817791     -2797.8143
   3   2.0000     -15.003469      -408.2652
   4   2.0000     -10.730753      -291.9986
   5   2.0000      -9.888074      -269.0682
   6   2.0000      -9.846117      -267.9265
   7   2.0000      -9.824644      -267.3422
   8   2.0000      -7.524506      -204.7522
   9   2.0000      -7.523251      -204.7181
  10   2.0000      -7.522719      -204.7036
  11   2.0000      -7.482970      -203.6220
  12   2.0000      -7.481535      -203.5829
  13   2.0000      -7.481304      -203.5766
  14   2.0000      -7.461852      -203.0473
  15   2.0000      -7.459845      -202.9927
  16   2.0000      -7.459714      -202.9891
  17   2.0000      -5.779263      -157.2618
  18   2.0000      -3.551728       -96.6474
  19   2.0000      -3.549823       -96.5956
  20   2.0000      -3.548498       -96.5595
  21   2.0000      -1.174288       -31.9540
  22   2.0000      -0.975207       -26.5367
  23   2.0000      -0.949137       -25.8273
  24   2.0000      -0.945830       -25.7374
  25   2.0000      -0.940971       -25.6051
  26   2.0000      -0.938967       -25.5506
  27   2.0000      -0.904042       -24.6002
  28   2.0000      -0.876634       -23.8544
  29   2.0000      -0.854160       -23.2429
  30   2.0000      -0.830669       -22.6036
  31   2.0000      -0.729414       -19.8484
  32   2.0000      -0.692937       -18.8558
  33   2.0000      -0.599792       -16.3212
  34   2.0000      -0.564134       -15.3509
  35   2.0000      -0.550715       -14.9857
  36   2.0000      -0.531867       -14.4728
  37   2.0000      -0.403560       -10.9814
  38   2.0000      -0.392927       -10.6921
  39   2.0000      -0.390329       -10.6214
  40   2.0000      -0.355022        -9.6606
  41   2.0000      -0.340304        -9.2601
  42   2.0000      -0.337009        -9.1705
  43   2.0000      -0.313533        -8.5317
  44   2.0000      -0.310413        -8.4468
  45   2.0000      -0.252350        -6.8668
  46   0.0000      -0.011819        -0.3216
  47   0.0000       0.000364         0.0099
  48   0.0000       0.038803         1.0559
  49   0.0000       0.047458         1.2914
  50   0.0000       0.065528         1.7831

Dispersion correction            ...

MULLIKEN ATOMIC CHARGES
-----------------------
   0 C :   -0.273210
   1 N :   -0.301159
   2 H :    0.305951
   3 H :    0.285049
   4 H :    0.287331
   5 H :    0.167562
   6 H :    0.197438
   7 H :    0.152666
   8 Pb:    0.730618
   9 Cl:   -0.545198
  10 Cl:   -0.502612
  11 Cl:   -0.504437
Sum of atomic charges:   -0.0000000

LOEWDIN ATOMIC CHARGES
----------------------
   0 C :   -0.306412
   1 N :    0.074266
   2 H :    0.170238
   3 H :    0.199874
   4 H :    0.181852
   5 H :    0.132270
   6 H :    0.124905
   7 H :    0.118545
   8 Pb:   -0.192309
   9 Cl:   -0.257733
  10 Cl:   -0.036320
  11 Cl:   -0.209175

  Mayer bond orders larger than 0.1
B(  0-C ,  1-N ) :   0.8571 B(  0-C ,  5-H ) :   0.9495 B(  0-C ,  6-H ) :   0.9293
B(  0-C ,  7-H ) :   0.9373 B(  1-N ,  2-H ) :   0.7795 B(  1-N ,  3-H ) :   0.8683
B(  1-N ,  4-H ) :   0.8564 B(  2-H , 10-Cl) :   0.1531 B(  8-Pb,  9-Cl) :   0.6285
B(  8-Pb, 10-Cl) :   0.5679 B(  8-Pb, 11-Cl) :   0.7911

MP2 TOTAL ENERGY:    -1669.539095149 Eh
Dispersion correction           -0.013221928
FINAL SINGLE POINT ENERGY     -1669.552317077401

DIPOLE MOMENT
-------------
                                X             Y             Z
Electronic contribution:    -57.05701     -50.60328     -43.37942
Nuclear contribution   :     59.71792      54.50647      43.35856
                        -----------------------------------------
Total Dipole Moment    :      2.66091       3.90319      -0.02086
                        -----------------------------------------
Magnitude (a.u.)       :      4.72396
Magnitude (Debye)      :     12.00735

                             ****ORCA TERMINATED NORMALLY****
TOTAL RUN TIME: 0 days 0 hours 13 minutes 58 seconds 42 msec
