                         Program Version 3.0.3 - RELEASE   -
|  1> ! RIJCOSX RI-B2PLYP D3BJ def2-TZVP ECP{def2-TZVP} TIGHTSCF Grid5 FinalGrid6 SlowConv MORead
|  2> %method
|  3>  RunTyp Gradient
|  4>  end
|  5> %maxcore 1000
|  6> %moinp "previous.gbw"
|  7> *xyz 0 1
|  8> C -0.310057 -0.745488 -1.460220
|  9> N -0.977403 0.382782 -0.786926
| 10> H -0.781482 0.363763 0.204031
| 11> H -1.978410 0.309634 -0.933634
| 12> H -0.654529 1.257010 -1.177110
| 13> H -0.622933 -1.692460 -1.018410
| 14> H 0.774207 -0.669295 -1.372040
| 15> H -0.569928 -0.762153 -2.519770
| 16> Pb -3.155150 -2.538180 -2.425360
| 17> Cl -0.817514 -3.182950 -2.986010
| 18> Cl -3.352850 -0.181151 -1.840520
| 19> Cl -4.090790 -4.036740 -0.679639
| 20> *
| 21>
| 22>                          ****END OF INPUT****

CARTESIAN COORDINATES (ANGSTROEM)
---------------------------------
  C     -0.310057   -0.745488   -1.460220
  N     -0.977403    0.382782   -0.786926
  H     -0.781482    0.363763    0.204031
  H     -1.978410    0.309634   -0.933634
  H     -0.654529    1.257010   -1.177110
  H     -0.622933   -1.692460   -1.018410
  H      0.774207   -0.669295   -1.372040
  H     -0.569928   -0.762153   -2.519770
  Pb    -3.155150   -2.538180   -2.425360
  Cl    -0.817514   -3.182950   -2.986010
  Cl    -3.352850   -0.181151   -1.840520
  Cl    -4.090790   -4.036740   -0.679639

 Total Charge           Charge          ....    0
 Multiplicity           Mult            ....    1
 Number of Electrons    NEL             ....   92
 Basis Dimension        Dim             ....  259

ORBITAL ENERGIES
----------------

  NO   OCC          E(Eh)            E(eV)
   0   2.0000    -102.874222     -2799.3499
   1   2.0000    -102.831258     -2798.1808
   2   2.0000    -102.822513     -2797.9428
   3   2.0000     -14.989213      -407.8772
   4   2.0000     -10.703444      -291.2555
   5   2.0000      -9.885934      -269.0099
   6   2.0000      -9.840047      -267.7613
   7   2.0000      -9.829867      -267.4843
   8   2.0000      -7.522345      -204.6934
   9   2.0000      -7.521303      -204.6650
  10   2.0000      -7.520603      -204.6460
  11   2.0000      -7.477009      -203.4598
  12   2.0000      -7.475221      -203.4111
  13   2.0000      -7.475049      -203.4064
  14   2.0000      -7.467029      -203.1882
  15   2.0000      -7.465030      -203.1338
  16   2.0000      -7.464910      -203.1305
  17   2.0000      -5.773537      -157.1059
  18   2.0000      -3.546140       -96.4954
  19   2.0000      -3.544017       -96.4376
  20   2.0000      -3.542786       -96.4041
  21   2.0000      -1.186254       -32.2796
  22   2.0000      -0.965289       -26.2669
  23   2.0000      -0.947351       -25.7787
  24   2.0000      -0.942058       -25.6347
  25   2.0000      -0.935205       -25.4482
  26   2.0000      -0.933681       -25.4067
  27   2.0000      -0.904493       -24.6125
  28   2.0000      -0.875683       -23.8285
  29   2.0000      -0.848348       -23.0847
  30   2.0000      -0.834710       -22.7136
  31   2.0000      -0.720912       -19.6170
  32   2.0000      -0.716763       -19.5041
  33   2.0000      -0.612919       -16.6784
  34   2.0000      -0.556694       -15.1484
  35   2.0000      -0.523486       -14.2448
  36   2.0000      -0.520257       -14.1569
  37   2.0000      -0.403573       -10.9818
  38   2.0000      -0.391403       -10.6506
  39   2.0000      -0.388632       -10.5752
  40   2.0000      -0.358233        -9.7480
  41   2.0000      -0.337216        -9.1761
  42   2.0000      -0.331085        -9.0093
  43   2.0000      -0.320056        -8.7092
  44   2.0000      -0.316363        -8.6087
  45   2.0000      -0.249843        -6.7986
  46   0.0000      -0.010193        -0.2774
  47   0.0000       0.003282         0.0893
  48   0.0000       0.051521         1.4020
  49   0.0000       0.059519         1.6196
  50   0.0000       0.063354         1.7239

Dispersion correction            ...

MULLIKEN ATOMIC CHARGES
-----------------------
   0 C :   -0.377725
   1 N :   -0.266231
   2 H :    0.281008
   3 H :    0.285838
   4 H :    0.282616
   5 H :    0.196469
   6 H :    0.166123
   7 H :    0.200737
   8 Pb:    0.763106
   9 Cl:   -0.527056
  10 Cl:   -0.501689
  11 Cl:   -0.503198
Sum of atomic charges:   -0.0000000

LOEWDIN ATOMIC CHARGES
----------------------
   0 C :   -0.351791
   1 N :    0.114713
   2 H :    0.192949
   3 H :    0.068968
   4 H :    0.194529
   5 H :    0.128632
   6 H :    0.124430
   7 H :    0.128488
   8 Pb:   -0.192881
   9 Cl:   -0.169458
  10 Cl:   -0.054808
  11 Cl:   -0.183771

  Mayer bond orders larger than 0.1
B(  0-C ,  1-N ) :   0.8347 B(  0-C ,  5-H ) :   0.9372 B(  0-C ,  6-H ) :   0.9474
B(  0-C ,  7-H ) :   0.9329 B(  1-N ,  2-H ) :   0.8817 B(  1-N ,  3-H ) :   0.7044
B(  1-N ,  4-H ) :   0.8868 B(  3-H , 10-Cl) :   0.2972 B(  8-Pb,  9-Cl) :   0.6588
B(  8-Pb, 10-Cl) :   0.4931 B(  8-Pb, 11-Cl) :   0.7924

MP2 TOTAL ENERGY:    -1669.551956216 Eh
Dispersion correction           -0.013848398
FINAL SINGLE POINT ENERGY     -1669.565804614681

DIPOLE MOMENT
-------------
                                X             Y             Z
Electronic contribution:    -64.42827     -46.22165     -50.32258
Nuclear contribution   :     66.62026      50.01459      51.23219
                        -----------------------------------------
Total Dipole Moment    :      2.19199       3.79294       0.90961
                        -----------------------------------------
Magnitude (a.u.)       :      4.47422
Magnitude (Debye)      :     11.37256

                             ****ORCA TERMINATED NORMALLY****
TOTAL RUN TIME: 0 days 0 hours 11 minutes 34 seconds 980 msec
