                         Program Version 3.0.3 - RELEASE   -
|  1> ! PW6B95 def2-TZVP GCP(DFT/TZ) ECP{def2-TZVP} Grid7 MORead
|  2> %pal nprocs 2 end
|  3> %method
|  4>  RunTyp Gradient
|  5>  end
|  6> %maxcore 2000
|  7> %moinp "previous.gbw"
|  8> *xyz 0 1
|  9> Pb 0.296160 0.288730 0.340033
| 10> Cl 2.919739 0.429641 0.132078
| 11> Cl 0.042340 2.889007 0.000916
| 12> Cl 0.388905 0.553465 2.960344
| 13> Cs 2.559356 3.031347 2.247440
| 14> *
| 15>
| 16>                          ****END OF INPUT****

CARTESIAN COORDINATES (ANGSTROEM)
---------------------------------
  Pb     0.296160    0.288730    0.340033
  Cl     2.919739    0.429641    0.132078
  Cl     0.042340    2.889007    0.000916
  Cl     0.388905    0.553465    2.960344
  Cs     2.559356    3.031347    2.247440

 Total Charge           Charge          ....    0
 Multiplicity           Mult            ....    1
 Number of Electrons    NEL             ....   82
 Basis Dimension        Dim             ....  190

ORBITAL ENERGIES
----------------

  NO   OCC          E(Eh)            E(eV)
   0   2.0000    -101.864671     -2771.8786
   1   2.0000    -101.864541     -2771.8751
   2   2.0000    -101.864422     -2771.8718
   3   2.0000      -9.505028      -258.6450
   4   2.0000      -9.504903      -258.6416
   5   2.0000      -9.504777      -258.6381
   6   2.0000      -7.234657      -196.8650
   7   2.0000      -7.234534      -196.8617
   8   2.0000      -7.234411      -196.8583
   9   2.0000      -7.232172      -196.7974
  10   2.0000      -7.232046      -196.7940
  11   2.0000      -7.231920      -196.7906
  12   2.0000      -7.231792      -196.7871
  13   2.0000      -7.231664      -196.7836
  14   2.0000      -7.231536      -196.7801
  15   2.0000      -5.567641      -151.5032
  16   2.0000      -3.391281       -92.2814
  17   2.0000      -3.391266       -92.2810
  18   2.0000      -3.390198       -92.2520
  19   2.0000      -1.079070       -29.3630
  20   2.0000      -0.886531       -24.1237
  21   2.0000      -0.886512       -24.1232
  22   2.0000      -0.881088       -23.9756
  23   2.0000      -0.881052       -23.9746
  24   2.0000      -0.880496       -23.9595
  25   2.0000      -0.784294       -21.3417
  26   2.0000      -0.766205       -20.8495
  27   2.0000      -0.765993       -20.8437
  28   2.0000      -0.550103       -14.9691
  29   2.0000      -0.549903       -14.9636
  30   2.0000      -0.549880       -14.9630
  31   2.0000      -0.506767       -13.7898
  32   2.0000      -0.330443        -8.9918
  33   2.0000      -0.330236        -8.9862
  34   2.0000      -0.317421        -8.6375
  35   2.0000      -0.303184        -8.2500
  36   2.0000      -0.303085        -8.2474
  37   2.0000      -0.289565        -7.8795
  38   2.0000      -0.289371        -7.8742
  39   2.0000      -0.284269        -7.7353
  40   2.0000      -0.275117        -7.4863
  41   0.0000      -0.037914        -1.0317
  42   0.0000      -0.027259        -0.7418
  43   0.0000      -0.026953        -0.7334
  44   0.0000      -0.026620        -0.7244
  45   0.0000       0.000801         0.0218

MULLIKEN ATOMIC CHARGES
-----------------------
   0 Pb:    0.760598
   1 Cl:   -0.513516
   2 Cl:   -0.513637
   3 Cl:   -0.514130
   4 Cs:    0.780684
Sum of atomic charges:   -0.0000000

LOEWDIN ATOMIC CHARGES
----------------------
   0 Pb:    0.176985
   1 Cl:   -0.154934
   2 Cl:   -0.154771
   3 Cl:   -0.154717
   4 Cs:    0.287437

  Mayer bond orders larger than 0.1
B(  0-Pb,  1-Cl) :   0.6718 B(  0-Pb,  2-Cl) :   0.6722 B(  0-Pb,  3-Cl) :   0.6710
B(  1-Cl,  4-Cs) :   0.1430 B(  2-Cl,  4-Cs) :   0.1428 B(  3-Cl,  4-Cs) :   0.1435

FINAL SINGLE POINT ENERGY     -1595.087623216856

DIPOLE MOMENT
-------------
                                X             Y             Z
Electronic contribution:     18.24577      21.66410      15.42215
Nuclear contribution   :    -17.09839     -20.28875     -14.45289
                        -----------------------------------------
Total Dipole Moment    :      1.14739       1.37535       0.96926
                        -----------------------------------------
Magnitude (a.u.)       :      2.03655
Magnitude (Debye)      :      5.17650

                             ****ORCA TERMINATED NORMALLY****
TOTAL RUN TIME: 0 days 0 hours 13 minutes 13 seconds 680 msec
