                         Program Version 3.0.3 - RELEASE   -
|  1> ! RIJCOSX RI-B2PLYP D3BJ def2-TZVP ECP{def2-TZVP} TIGHTSCF Grid5 FinalGrid6 MORead
|  2> %method
|  3>  RunTyp Gradient
|  4>  end
|  5> %maxcore 1000
|  6> %moinp "previous.gbw"
|  7> *xyz 0 1
|  8> C 2.891451 3.575826 2.778059
|  9> N 2.089424 2.555032 2.059582
| 10> H 3.558472 3.076137 3.484362
| 11> H 2.218727 4.247132 3.316750
| 12> H 3.479382 4.144646 2.054078
| 13> H 1.492676 1.958835 2.673590
| 14> H 2.651801 1.866309 1.511973
| 15> H 1.418732 2.942131 1.359080
| 16> Pb 0.070507 -0.016889 0.210559
| 17> Cl 2.682459 0.131577 0.202115
| 18> Cl -0.095084 2.569585 -0.154262
| 19> Cl 0.044033 0.328389 2.802241
| 20> Cl -2.540036 -0.167872 0.220231
| 21> Cl 0.099012 -0.366216 -2.379906
| 22> Cl 0.240299 -2.604935 0.576462
| 23> N -1.944119 -2.595072 -1.633806
| 24> C -2.725500 -3.643046 -2.335777
| 25> H -2.519034 -1.905375 -1.102173
| 26> H -1.352579 -2.002501 -2.255638
| 27> H -3.308461 -4.206070 -1.603344
| 28> H -2.038395 -4.314606 -2.855607
| 29> H -3.396098 -3.169682 -3.056568
| 30> H -1.270867 -2.959590 -0.921865
| 31> *
| 32>
| 33>                          ****END OF INPUT****

CARTESIAN COORDINATES (ANGSTROEM)
---------------------------------
  C      2.891451    3.575826    2.778059
  N      2.089424    2.555032    2.059582
  H      3.558472    3.076137    3.484362
  H      2.218727    4.247132    3.316750
  H      3.479382    4.144646    2.054078
  H      1.492676    1.958835    2.673590
  H      2.651801    1.866309    1.511973
  H      1.418732    2.942131    1.359080
  Pb     0.070507   -0.016889    0.210559
  Cl     2.682459    0.131577    0.202115
  Cl    -0.095084    2.569585   -0.154262
  Cl     0.044033    0.328389    2.802241
  Cl    -2.540036   -0.167872    0.220231
  Cl     0.099012   -0.366216   -2.379906
  Cl     0.240299   -2.604935    0.576462
  N     -1.944119   -2.595072   -1.633806
  C     -2.725500   -3.643046   -2.335777
  H     -2.519034   -1.905375   -1.102173
  H     -1.352579   -2.002501   -2.255638
  H     -3.308461   -4.206070   -1.603344
  H     -2.038395   -4.314606   -2.855607
  H     -3.396098   -3.169682   -3.056568
  H     -1.270867   -2.959590   -0.921865

 Total Charge           Charge          ....    0
 Multiplicity           Mult            ....    1
 Number of Electrons    NEL             ....  162
 Basis Dimension        Dim             ....  468

ORBITAL ENERGIES
----------------

  NO   OCC          E(Eh)            E(eV)
   0   2.0000    -102.865673     -2799.1173
   1   2.0000    -102.865628     -2799.1160
   2   2.0000    -102.865503     -2799.1126
   3   2.0000    -102.865452     -2799.1113
   4   2.0000    -102.865226     -2799.1051
   5   2.0000    -102.865211     -2799.1047
   6   2.0000     -14.957621      -407.0176
   7   2.0000     -14.957577      -407.0163
   8   2.0000     -10.707337      -291.3615
   9   2.0000     -10.707328      -291.3612
  10   2.0000      -9.871980      -268.6302
  11   2.0000      -9.871944      -268.6293
  12   2.0000      -9.871834      -268.6263
  13   2.0000      -9.871778      -268.6247
  14   2.0000      -9.871594      -268.6197
  15   2.0000      -9.871565      -268.6189
  16   2.0000      -7.509985      -204.3571
  17   2.0000      -7.509938      -204.3558
  18   2.0000      -7.509816      -204.3525
  19   2.0000      -7.509766      -204.3511
  20   2.0000      -7.509531      -204.3447
  21   2.0000      -7.509520      -204.3444
  22   2.0000      -7.506992      -204.2756
  23   2.0000      -7.506969      -204.2750
  24   2.0000      -7.506849      -204.2717
  25   2.0000      -7.506786      -204.2700
  26   2.0000      -7.506641      -204.2661
  27   2.0000      -7.506592      -204.2648
  28   2.0000      -7.506507      -204.2624
  29   2.0000      -7.506470      -204.2614
  30   2.0000      -7.506362      -204.2585
  31   2.0000      -7.506307      -204.2570
  32   2.0000      -7.506121      -204.2519
  33   2.0000      -7.506095      -204.2512
  34   2.0000      -5.835907      -158.8031
  35   2.0000      -3.608807       -98.2006
  36   2.0000      -3.608075       -98.1807
  37   2.0000      -3.608058       -98.1803
  38   2.0000      -1.135285       -30.8927
  39   2.0000      -1.135238       -30.8914
  40   2.0000      -1.009475       -27.4692
  41   2.0000      -1.009370       -27.4663
  42   2.0000      -0.994978       -27.0747
  43   2.0000      -0.993775       -27.0420
  44   2.0000      -0.993579       -27.0366
  45   2.0000      -0.903266       -24.5791
  46   2.0000      -0.884461       -24.0674
  47   2.0000      -0.880971       -23.9724
  48   2.0000      -0.880859       -23.9694
  49   2.0000      -0.862755       -23.4768
  50   2.0000      -0.862562       -23.4715
  51   2.0000      -0.856367       -23.3029
  52   2.0000      -0.854268       -23.2458
  53   2.0000      -0.662659       -18.0319
  54   2.0000      -0.662363       -18.0238
  55   2.0000      -0.662215       -18.0198
  56   2.0000      -0.661892       -18.0110
  57   2.0000      -0.597687       -16.2639
  58   2.0000      -0.597627       -16.2623
  59   2.0000      -0.573031       -15.5930
  60   2.0000      -0.518185       -14.1005
  61   2.0000      -0.518105       -14.0983
  62   2.0000      -0.518011       -14.0958
  63   2.0000      -0.517926       -14.0935
  64   2.0000      -0.411712       -11.2033
  65   2.0000      -0.411019       -11.1844
  66   2.0000      -0.410915       -11.1816
  67   2.0000      -0.374858       -10.2004
  68   2.0000      -0.369284       -10.0487
  69   2.0000      -0.369095       -10.0436
  70   2.0000      -0.353430        -9.6173
  71   2.0000      -0.352410        -9.5896
  72   2.0000      -0.352218        -9.5843
  73   2.0000      -0.346781        -9.4364
  74   2.0000      -0.345540        -9.4026
  75   2.0000      -0.345445        -9.4000
  76   2.0000      -0.339432        -9.2364
  77   2.0000      -0.339243        -9.2313
  78   2.0000      -0.336939        -9.1686
  79   2.0000      -0.336777        -9.1642
  80   2.0000      -0.332019        -9.0347
  81   0.0000      -0.122389        -3.3304
  82   0.0000       0.039198         1.0666
  83   0.0000       0.041205         1.1212
  84   0.0000       0.082866         2.2549
  85   0.0000       0.087368         2.3774

Dispersion correction            ...

MULLIKEN ATOMIC CHARGES
-----------------------
   0 C :   -0.278326
   1 N :   -0.280944
   2 H :    0.162586
   3 H :    0.163038
   4 H :    0.163468
   5 H :    0.274584
   6 H :    0.273675
   7 H :    0.271920
   8 Pb:    1.024966
   9 Cl:   -0.420020
  10 Cl:   -0.421792
  11 Cl:   -0.420660
  12 Cl:   -0.420385
  13 Cl:   -0.420864
  14 Cl:   -0.421187
  15 N :   -0.280929
  16 C :   -0.278286
  17 H :    0.274059
  18 H :    0.274778
  19 H :    0.163558
  20 H :    0.163173
  21 H :    0.162255
  22 H :    0.271333
Sum of atomic charges:   -0.0000000

LOEWDIN ATOMIC CHARGES
----------------------
   0 C :   -0.288847
   1 N :    0.079816
   2 H :    0.127504
   3 H :    0.127556
   4 H :    0.127709
   5 H :    0.162662
   6 H :    0.161922
   7 H :    0.161729
   8 Pb:   -0.525962
   9 Cl:   -0.131779
  10 Cl:   -0.133445
  11 Cl:   -0.131834
  12 Cl:   -0.131708
  13 Cl:   -0.131876
  14 Cl:   -0.133458
  15 N :    0.079747
  16 C :   -0.288810
  17 H :    0.162589
  18 H :    0.163110
  19 H :    0.127784
  20 H :    0.127690
  21 H :    0.127265
  22 H :    0.160636

  Mayer bond orders larger than 0.1
B(  0-C ,  1-N ) :   0.8929 B(  0-C ,  2-H ) :   0.9522 B(  0-C ,  3-H ) :   0.9518
B(  0-C ,  4-H ) :   0.9516 B(  1-N ,  5-H ) :   0.8105 B(  1-N ,  6-H ) :   0.8084
B(  1-N ,  7-H ) :   0.8093 B(  5-H , 11-Cl) :   0.1559 B(  6-H ,  9-Cl) :   0.1602
B(  7-H , 10-Cl) :   0.1601 B(  8-Pb,  9-Cl) :   0.5887 B(  8-Pb, 10-Cl) :   0.5878
B(  8-Pb, 11-Cl) :   0.5899 B(  8-Pb, 12-Cl) :   0.5902 B(  8-Pb, 13-Cl) :   0.5907
B(  8-Pb, 14-Cl) :   0.5854 B( 12-Cl, 17-H ) :   0.1560 B( 13-Cl, 18-H ) :   0.1535
B( 14-Cl, 22-H ) :   0.1669 B( 15-N , 16-C ) :   0.8933 B( 15-N , 17-H ) :   0.8105
B( 15-N , 18-H ) :   0.8117 B( 15-N , 22-H ) :   0.8058 B( 16-C , 19-H ) :   0.9516
B( 16-C , 20-H ) :   0.9517 B( 16-C , 21-H ) :   0.9522

MP2 TOTAL ENERGY:    -3146.415542957 Eh
Dispersion correction           -0.030478037
FINAL SINGLE POINT ENERGY     -3146.446020994209

DIPOLE MOMENT
-------------
                                X             Y             Z
Electronic contribution:     -0.29227       0.37354      -0.22461
Nuclear contribution   :      0.29674      -0.38169       0.23136
                        -----------------------------------------
Total Dipole Moment    :      0.00448      -0.00816       0.00675
                        -----------------------------------------
Magnitude (a.u.)       :      0.01149
Magnitude (Debye)      :      0.02922

                             ****ORCA TERMINATED NORMALLY****
TOTAL RUN TIME: 0 days 0 hours 23 minutes 44 seconds 8 msec
