                         Program Version 3.0.3 - RELEASE   -
|  1> ! RIJCOSX RI-B2PLYP D3BJ def2-TZVP ECP{def2-TZVP} TIGHTSCF Grid5 FinalGrid6 SlowConv MORead
|  2> %method
|  3>  RunTyp Gradient
|  4>  end
|  5> %maxcore 1000
|  6> %moinp "previous.gbw"
|  7> *xyz 0 1
|  8> C -0.955246 0.098183 -0.840852
|  9> N -0.550557 -0.648203 -2.082840
| 10> H -1.055120 -1.641790 -2.117870
| 11> H 0.419408 -0.877591 -1.994240
| 12> H -0.675193 -0.135699 -2.832870
| 13> H -0.919121 -0.613030 -0.053443
| 14> H -2.048570 0.317965 -0.620484
| 15> H -0.287834 0.997611 -0.698107
| 16> Pb -3.100580 -2.562310 -2.347110
| 17> Cl -0.710464 -3.281860 -2.337270
| 18> Cl -3.292330 -0.074344 -2.371420
| 19> Cl -4.515310 -3.774560 -0.899481
| 20> *
| 21>
| 22>                          ****END OF INPUT****

CARTESIAN COORDINATES (ANGSTROEM)
---------------------------------
  C     -0.955246    0.098183   -0.840852
  N     -0.550557   -0.648203   -2.082840
  H     -1.055120   -1.641790   -2.117870
  H      0.419408   -0.877591   -1.994240
  H     -0.675193   -0.135699   -2.832870
  H     -0.919121   -0.613030   -0.053443
  H     -2.048570    0.317965   -0.620484
  H     -0.287834    0.997611   -0.698107
  Pb    -3.100580   -2.562310   -2.347110
  Cl    -0.710464   -3.281860   -2.337270
  Cl    -3.292330   -0.074344   -2.371420
  Cl    -4.515310   -3.774560   -0.899481

 Total Charge           Charge          ....    0
 Multiplicity           Mult            ....    1
 Number of Electrons    NEL             ....   92
 Basis Dimension        Dim             ....  259

ORBITAL ENERGIES
----------------

  NO   OCC          E(Eh)            E(eV)
   0   2.0000    -102.873283     -2799.3243
   1   2.0000    -102.847089     -2798.6116
   2   2.0000    -102.844738     -2798.5476
   3   2.0000     -14.961316      -407.1181
   4   2.0000     -10.697345      -291.0895
   5   2.0000      -9.884068      -268.9592
   6   2.0000      -9.855710      -268.1875
   7   2.0000      -9.854688      -268.1597
   8   2.0000      -7.520779      -204.6508
   9   2.0000      -7.519139      -204.6062
  10   2.0000      -7.518795      -204.5968
  11   2.0000      -7.492784      -203.8890
  12   2.0000      -7.491403      -203.8515
  13   2.0000      -7.490788      -203.8347
  14   2.0000      -7.490582      -203.8291
  15   2.0000      -7.489782      -203.8073
  16   2.0000      -7.489713      -203.8054
  17   2.0000      -5.789656      -157.5446
  18   2.0000      -3.563215       -96.9600
  19   2.0000      -3.559969       -96.8717
  20   2.0000      -3.558593       -96.8343
  21   2.0000      -1.164509       -31.6879
  22   2.0000      -0.975446       -26.5432
  23   2.0000      -0.970780       -26.4163
  24   2.0000      -0.960725       -26.1427
  25   2.0000      -0.954866       -25.9832
  26   2.0000      -0.950075       -25.8528
  27   2.0000      -0.911112       -24.7926
  28   2.0000      -0.879507       -23.9326
  29   2.0000      -0.860726       -23.4216
  30   2.0000      -0.849189       -23.1076
  31   2.0000      -0.714790       -19.4504
  32   2.0000      -0.679528       -18.4909
  33   2.0000      -0.598152       -16.2765
  34   2.0000      -0.563351       -15.3296
  35   2.0000      -0.530556       -14.4372
  36   2.0000      -0.486328       -13.2337
  37   2.0000      -0.411038       -11.1849
  38   2.0000      -0.395760       -10.7692
  39   2.0000      -0.384509       -10.4630
  40   2.0000      -0.371887       -10.1196
  41   2.0000      -0.355806        -9.6820
  42   2.0000      -0.348991        -9.4965
  43   2.0000      -0.342300        -9.3145
  44   2.0000      -0.337098        -9.1729
  45   2.0000      -0.254429        -6.9234
  46   0.0000      -0.028771        -0.7829
  47   0.0000       0.030530         0.8308
  48   0.0000       0.049744         1.3536
  49   0.0000       0.057108         1.5540
  50   0.0000       0.074270         2.0210

Dispersion correction            ...

MULLIKEN ATOMIC CHARGES
-----------------------
   0 C :   -0.344761
   1 N :   -0.270529
   2 H :    0.342399
   3 H :    0.267795
   4 H :    0.242485
   5 H :    0.159013
   6 H :    0.221101
   7 H :    0.151876
   8 Pb:    0.681234
   9 Cl:   -0.481182
  10 Cl:   -0.521563
  11 Cl:   -0.447868
Sum of atomic charges:   -0.0000000

LOEWDIN ATOMIC CHARGES
----------------------
   0 C :   -0.357679
   1 N :    0.089863
   2 H :    0.102388
   3 H :    0.179967
   4 H :    0.129667
   5 H :    0.118220
   6 H :    0.137546
   7 H :    0.127094
   8 Pb:   -0.209113
   9 Cl:   -0.093959
  10 Cl:   -0.148839
  11 Cl:   -0.075155

  Mayer bond orders larger than 0.1
B(  0-C ,  1-N ) :   0.8725 B(  0-C ,  5-H ) :   0.9502 B(  0-C ,  6-H ) :   0.9186
B(  0-C ,  7-H ) :   0.9424 B(  1-N ,  2-H ) :   0.6605 B(  1-N ,  3-H ) :   0.8873
B(  1-N ,  4-H ) :   0.9024 B(  2-H ,  9-Cl) :   0.2998 B(  8-Pb,  9-Cl) :   0.4880
B(  8-Pb, 10-Cl) :   0.6454 B(  8-Pb, 11-Cl) :   0.8759

MP2 TOTAL ENERGY:    -1669.496567124 Eh
Dispersion correction           -0.014367151
FINAL SINGLE POINT ENERGY     -1669.510934274736

DIPOLE MOMENT
-------------
                                X             Y             Z
Electronic contribution:    -55.26276     -50.73883     -38.26619
Nuclear contribution   :     57.73667      52.43149      38.06659
                        -----------------------------------------
Total Dipole Moment    :      2.47391       1.69266      -0.19960
                        -----------------------------------------
Magnitude (a.u.)       :      3.00419
Magnitude (Debye)      :      7.63605

                             ****ORCA TERMINATED NORMALLY****
TOTAL RUN TIME: 0 days 0 hours 18 minutes 3 seconds 962 msec
