                         Program Version 3.0.3 - RELEASE   -
|  1> ! PW6B95 def2-TZVP GCP(DFT/TZ) ECP{def2-TZVP} Grid7 MORead
|  2> %pal nprocs 2 end
|  3> %method
|  4>  RunTyp Gradient
|  5>  end
|  6> %maxcore 2000
|  7> %moinp "previous.gbw"
|  8> *xyz 0 1
|  9> Pb 0.312233 0.265558 0.532066
| 10> Cl 2.853905 0.127069 0.848643
| 11> Cl 0.643144 2.534308 -0.824847
| 12> Cl 0.089024 1.683747 2.769349
| 13> Cs 2.908838 3.457431 2.528602
| 14> *
| 15>
| 16>                          ****END OF INPUT****

CARTESIAN COORDINATES (ANGSTROEM)
---------------------------------
  Pb     0.312233    0.265558    0.532066
  Cl     2.853905    0.127069    0.848643
  Cl     0.643144    2.534308   -0.824847
  Cl     0.089024    1.683747    2.769349
  Cs     2.908838    3.457431    2.528602

 Total Charge           Charge          ....    0
 Multiplicity           Mult            ....    1
 Number of Electrons    NEL             ....   82
 Basis Dimension        Dim             ....  190

ORBITAL ENERGIES
----------------

  NO   OCC          E(Eh)            E(eV)
   0   2.0000    -101.856814     -2771.6648
   1   2.0000    -101.855793     -2771.6370
   2   2.0000    -101.839328     -2771.1890
   3   2.0000      -9.497365      -258.4364
   4   2.0000      -9.496338      -258.4085
   5   2.0000      -9.479114      -257.9398
   6   2.0000      -7.227040      -196.6578
   7   2.0000      -7.225855      -196.6255
   8   2.0000      -7.224467      -196.5877
   9   2.0000      -7.224079      -196.5772
  10   2.0000      -7.223516      -196.5619
  11   2.0000      -7.223186      -196.5529
  12   2.0000      -7.208951      -196.1655
  13   2.0000      -7.206202      -196.0907
  14   2.0000      -7.205851      -196.0812
  15   2.0000      -5.555402      -151.1702
  16   2.0000      -3.379643       -91.9648
  17   2.0000      -3.378999       -91.9472
  18   2.0000      -3.377391       -91.9035
  19   2.0000      -1.097802       -29.8727
  20   2.0000      -0.875742       -23.8302
  21   2.0000      -0.873360       -23.7653
  22   2.0000      -0.869359       -23.6565
  23   2.0000      -0.868746       -23.6398
  24   2.0000      -0.867471       -23.6051
  25   2.0000      -0.773707       -21.0536
  26   2.0000      -0.757785       -20.6204
  27   2.0000      -0.741367       -20.1736
  28   2.0000      -0.568756       -15.4766
  29   2.0000      -0.567860       -15.4523
  30   2.0000      -0.565038       -15.3755
  31   2.0000      -0.494178       -13.4473
  32   2.0000      -0.322490        -8.7754
  33   2.0000      -0.314100        -8.5471
  34   2.0000      -0.309782        -8.4296
  35   2.0000      -0.291462        -7.9311
  36   2.0000      -0.290797        -7.9130
  37   2.0000      -0.279250        -7.5988
  38   2.0000      -0.266320        -7.2469
  39   2.0000      -0.262974        -7.1559
  40   2.0000      -0.262268        -7.1367
  41   0.0000      -0.049517        -1.3474
  42   0.0000      -0.021933        -0.5968
  43   0.0000      -0.018287        -0.4976
  44   0.0000      -0.011490        -0.3127
  45   0.0000      -0.006635        -0.1806

MULLIKEN ATOMIC CHARGES
-----------------------
   0 Pb:    0.787060
   1 Cl:   -0.512566
   2 Cl:   -0.523335
   3 Cl:   -0.552669
   4 Cs:    0.801510
Sum of atomic charges:   -0.0000000

LOEWDIN ATOMIC CHARGES
----------------------
   0 Pb:    0.138717
   1 Cl:   -0.149985
   2 Cl:   -0.228597
   3 Cl:   -0.179901
   4 Cs:    0.419766

  Mayer bond orders larger than 0.1
B(  0-Pb,  1-Cl) :   0.7016 B(  0-Pb,  2-Cl) :   0.7089 B(  0-Pb,  3-Cl) :   0.5940
B(  1-Cl,  4-Cs) :   0.1202 B(  3-Cl,  4-Cs) :   0.1694

FINAL SINGLE POINT ENERGY     -1595.076017009819

DIPOLE MOMENT
-------------
                                X             Y             Z
Electronic contribution:     24.86992      24.33302      36.36479
Nuclear contribution   :    -23.10371     -22.61837     -34.41689
                        -----------------------------------------
Total Dipole Moment    :      1.76621       1.71465       1.94790
                        -----------------------------------------
Magnitude (a.u.)       :      3.13908
Magnitude (Debye)      :      7.97892

                             ****ORCA TERMINATED NORMALLY****
TOTAL RUN TIME: 0 days 0 hours 12 minutes 52 seconds 824 msec
