                         Program Version 3.0.3 - RELEASE   -
|  1> ! PW6B95 def2-TZVP GCP(DFT/TZ) ECP{def2-TZVP} Grid7 MORead
|  2> %pal nprocs 2 end
|  3> %method
|  4>  RunTyp Gradient
|  5>  end
|  6> %maxcore 2000
|  7> %moinp "previous.gbw"
|  8> *xyz 0 1
|  9> Pb -0.341425 1.828253 1.860403
| 10> Cl 0.497383 0.956515 -0.661093
| 11> Cl 1.057325 3.985505 1.635107
| 12> Cl 1.455771 0.257094 3.255028
| 13> Cs 3.560455 1.639161 0.834500
| 14> *
| 15>
| 16>                          ****END OF INPUT****

CARTESIAN COORDINATES (ANGSTROEM)
---------------------------------
  Pb    -0.341425    1.828253    1.860403
  Cl     0.497383    0.956515   -0.661093
  Cl     1.057325    3.985505    1.635107
  Cl     1.455771    0.257094    3.255028
  Cs     3.560455    1.639161    0.834500

 Total Charge           Charge          ....    0
 Multiplicity           Mult            ....    1
 Number of Electrons    NEL             ....   82
 Basis Dimension        Dim             ....  190

ORBITAL ENERGIES
----------------

  NO   OCC          E(Eh)            E(eV)
   0   2.0000    -101.876307     -2772.1953
   1   2.0000    -101.860540     -2771.7662
   2   2.0000    -101.855100     -2771.6182
   3   2.0000      -9.516649      -258.9612
   4   2.0000      -9.500098      -258.5108
   5   2.0000      -9.494567      -258.3603
   6   2.0000      -7.246291      -197.1816
   7   2.0000      -7.243809      -197.1141
   8   2.0000      -7.243352      -197.1016
   9   2.0000      -7.229727      -196.7309
  10   2.0000      -7.227349      -196.6662
  11   2.0000      -7.226940      -196.6550
  12   2.0000      -7.224251      -196.5819
  13   2.0000      -7.221862      -196.5168
  14   2.0000      -7.221342      -196.5027
  15   2.0000      -5.577789      -151.7794
  16   2.0000      -3.401497       -92.5594
  17   2.0000      -3.401349       -92.5554
  18   2.0000      -3.400164       -92.5232
  19   2.0000      -1.086662       -29.5696
  20   2.0000      -0.895856       -24.3775
  21   2.0000      -0.893303       -24.3080
  22   2.0000      -0.891184       -24.2504
  23   2.0000      -0.890568       -24.2336
  24   2.0000      -0.890081       -24.2203
  25   2.0000      -0.785392       -21.3716
  26   2.0000      -0.763806       -20.7842
  27   2.0000      -0.756425       -20.5834
  28   2.0000      -0.557663       -15.1748
  29   2.0000      -0.556664       -15.1476
  30   2.0000      -0.556186       -15.1346
  31   2.0000      -0.510746       -13.8981
  32   2.0000      -0.332934        -9.0596
  33   2.0000      -0.322580        -8.7778
  34   2.0000      -0.318672        -8.6715
  35   2.0000      -0.300884        -8.1875
  36   2.0000      -0.297662        -8.0998
  37   2.0000      -0.289453        -7.8764
  38   2.0000      -0.284699        -7.7471
  39   2.0000      -0.278763        -7.5855
  40   2.0000      -0.275216        -7.4890
  41   0.0000      -0.048550        -1.3211
  42   0.0000      -0.041208        -1.1213
  43   0.0000      -0.040110        -1.0914
  44   0.0000      -0.025421        -0.6917
  45   0.0000      -0.001629        -0.0443

MULLIKEN ATOMIC CHARGES
-----------------------
   0 Pb:    0.776215
   1 Cl:   -0.537970
   2 Cl:   -0.489632
   3 Cl:   -0.534473
   4 Cs:    0.785859
Sum of atomic charges:   -0.0000000

LOEWDIN ATOMIC CHARGES
----------------------
   0 Pb:    0.267623
   1 Cl:   -0.236835
   2 Cl:   -0.127272
   3 Cl:   -0.224543
   4 Cs:    0.321028

  Mayer bond orders larger than 0.1
B(  0-Pb,  1-Cl) :   0.6265 B(  0-Pb,  2-Cl) :   0.7296 B(  0-Pb,  3-Cl) :   0.6376
B(  1-Cl,  4-Cs) :   0.1552 B(  2-Cl,  4-Cs) :   0.1212 B(  3-Cl,  4-Cs) :   0.1488

FINAL SINGLE POINT ENERGY     -1595.078725137410

DIPOLE MOMENT
-------------
                                X             Y             Z
Electronic contribution:     35.77387       0.42615      -3.33283
Nuclear contribution   :    -33.65564      -0.15508       3.07468
                        -----------------------------------------
Total Dipole Moment    :      2.11823       0.27107      -0.25815
                        -----------------------------------------
Magnitude (a.u.)       :      2.15105
Magnitude (Debye)      :      5.46753

                             ****ORCA TERMINATED NORMALLY****
TOTAL RUN TIME: 0 days 0 hours 12 minutes 38 seconds 16 msec
