                         Program Version 3.0.3 - RELEASE   -
|  1> ! RIJCOSX RI-B2PLYP D3BJ def2-TZVP ECP{def2-TZVP} TIGHTSCF Grid5 FinalGrid6 SlowConv MORead
|  2> %method
|  3>  RunTyp Gradient
|  4>  end
|  5> %maxcore 1000
|  6> %moinp "previous.gbw"
|  7> *xyz 0 1
|  8> C -0.394281 0.276013 -0.426662
|  9> N -1.165380 -0.685592 -1.253010
| 10> H 0.248796 -0.278576 0.260517
| 11> H -1.090820 0.897444 0.140826
| 12> H 0.215705 0.904875 -1.079130
| 13> H -1.783150 -1.324970 -0.698370
| 14> H -0.582260 -1.326300 -1.835140
| 15> H -1.813140 -0.240924 -1.938260
| 16> Pb -2.753470 -3.989520 -2.720960
| 17> Cl -1.438120 -3.254580 -4.806830
| 18> Cl -2.725660 1.202960 -2.902560
| 19> Cl -4.769080 -3.387440 -1.239150
| 20> *
| 21>
| 22>                          ****END OF INPUT****

CARTESIAN COORDINATES (ANGSTROEM)
---------------------------------
  C     -0.394281    0.276013   -0.426662
  N     -1.165380   -0.685592   -1.253010
  H      0.248796   -0.278576    0.260517
  H     -1.090820    0.897444    0.140826
  H      0.215705    0.904875   -1.079130
  H     -1.783150   -1.324970   -0.698370
  H     -0.582260   -1.326300   -1.835140
  H     -1.813140   -0.240924   -1.938260
  Pb    -2.753470   -3.989520   -2.720960
  Cl    -1.438120   -3.254580   -4.806830
  Cl    -2.725660    1.202960   -2.902560
  Cl    -4.769080   -3.387440   -1.239150

 Total Charge           Charge          ....    0
 Multiplicity           Mult            ....    1
 Number of Electrons    NEL             ....   92
 Basis Dimension        Dim             ....  259

ORBITAL ENERGIES
----------------

  NO   OCC          E(Eh)            E(eV)
   0   2.0000    -102.883849     -2799.6119
   1   2.0000    -102.882932     -2799.5869
   2   2.0000    -102.756085     -2796.1352
   3   2.0000     -14.989150      -407.8755
   4   2.0000     -10.714121      -291.5461
   5   2.0000      -9.889837      -269.1161
   6   2.0000      -9.888874      -269.0899
   7   2.0000      -9.762156      -265.6418
   8   2.0000      -7.526779      -204.8141
   9   2.0000      -7.525806      -204.7876
  10   2.0000      -7.525374      -204.7758
  11   2.0000      -7.524785      -204.7598
  12   2.0000      -7.524414      -204.7497
  13   2.0000      -7.523825      -204.7337
  14   2.0000      -7.398954      -201.3358
  15   2.0000      -7.397881      -201.3066
  16   2.0000      -7.397844      -201.3056
  17   2.0000      -5.874109      -159.8426
  18   2.0000      -3.649063       -99.2960
  19   2.0000      -3.645320       -99.1942
  20   2.0000      -3.639335       -99.0313
  21   2.0000      -1.158573       -31.5264
  22   2.0000      -1.039559       -28.2878
  23   2.0000      -1.037241       -28.2248
  24   2.0000      -1.033032       -28.1102
  25   2.0000      -1.031514       -28.0689
  26   2.0000      -1.030640       -28.0451
  27   2.0000      -0.895419       -24.3656
  28   2.0000      -0.893349       -24.3093
  29   2.0000      -0.869240       -23.6532
  30   2.0000      -0.775924       -21.1140
  31   2.0000      -0.688779       -18.7426
  32   2.0000      -0.672826       -18.3085
  33   2.0000      -0.612807       -16.6753
  34   2.0000      -0.601516       -16.3681
  35   2.0000      -0.523723       -14.2512
  36   2.0000      -0.523150       -14.2356
  37   2.0000      -0.422302       -11.4914
  38   2.0000      -0.380745       -10.3606
  39   2.0000      -0.379046       -10.3144
  40   2.0000      -0.369208       -10.0467
  41   2.0000      -0.367605       -10.0030
  42   2.0000      -0.329497        -8.9661
  43   2.0000      -0.269084        -7.3222
  44   2.0000      -0.256304        -6.9744
  45   2.0000      -0.255703        -6.9580
  46   0.0000      -0.118725        -3.2307
  47   0.0000      -0.087074        -2.3694
  48   0.0000       0.008072         0.2196
  49   0.0000       0.008650         0.2354
  50   0.0000       0.061782         1.6812

Dispersion correction            ...

MULLIKEN ATOMIC CHARGES
-----------------------
   0 C :   -0.253005
   1 N :   -0.295542
   2 H :    0.139434
   3 H :    0.178751
   4 H :    0.178578
   5 H :    0.267912
   6 H :    0.269846
   7 H :    0.247246
   8 Pb:    0.832110
   9 Cl:   -0.412903
  10 Cl:   -0.733723
  11 Cl:   -0.418706
Sum of atomic charges:   -0.0000000

LOEWDIN ATOMIC CHARGES
----------------------
   0 C :   -0.287708
   1 N :    0.092159
   2 H :    0.117826
   3 H :    0.136369
   4 H :    0.136156
   5 H :    0.196338
   6 H :    0.195225
   7 H :    0.108440
   8 Pb:    0.309643
   9 Cl:   -0.158160
  10 Cl:   -0.683405
  11 Cl:   -0.162885

  Mayer bond orders larger than 0.1
B(  0-C ,  1-N ) :   0.8758 B(  0-C ,  2-H ) :   0.9460 B(  0-C ,  3-H ) :   0.9454
B(  0-C ,  4-H ) :   0.9457 B(  1-N ,  5-H ) :   0.8774 B(  1-N ,  6-H ) :   0.8775
B(  1-N ,  7-H ) :   0.6629 B(  7-H , 10-Cl) :   0.4118 B(  8-Pb,  9-Cl) :   0.9223
B(  8-Pb, 11-Cl) :   0.9134

MP2 TOTAL ENERGY:    -1669.523103008 Eh
Dispersion correction           -0.009671576
FINAL SINGLE POINT ENERGY     -1669.532774583975

DIPOLE MOMENT
-------------
                                X             Y             Z
Electronic contribution:    -26.37312    -170.77174     -22.87667
Nuclear contribution   :     28.90276     167.54352      25.45201
                        -----------------------------------------
Total Dipole Moment    :      2.52963      -3.22822       2.57535
                        -----------------------------------------
Magnitude (a.u.)       :      4.84281
Magnitude (Debye)      :     12.30945

                             ****ORCA TERMINATED NORMALLY****
TOTAL RUN TIME: 0 days 0 hours 12 minutes 27 seconds 973 msec
