                         Program Version 3.0.3 - RELEASE   -
|  1> ! RIJCOSX RI-B2PLYP D3BJ def2-TZVP ECP{def2-TZVP} TIGHTSCF Grid5 FinalGrid6 MORead
|  2> %method
|  3>  RunTyp Gradient
|  4>  end
|  5> %maxcore 1000
|  6> %moinp "previous.gbw"
|  7> *xyz -2 1
|  8> C 2.821971 3.493173 2.716929
|  9> N 2.031893 2.485380 2.005967
| 10> H 3.493737 3.003675 3.431461
| 11> H 2.156449 4.174155 3.259759
| 12> H 3.419280 4.070497 2.001994
| 13> H 1.424368 1.881241 2.639320
| 14> H 2.617127 1.787701 1.451958
| 15> H 1.353302 2.890520 1.291746
| 16> Pb 0.083239 0.003414 0.237376
| 17> Cl 3.160780 0.331292 0.212676
| 18> Cl -0.054130 3.057305 -0.135497
| 19> Cl 0.201930 0.485308 3.308698
| 20> Cl -2.940224 -0.300943 0.111918
| 21> Cl -0.041817 -0.507875 -2.867378
| 22> Cl 0.206850 -3.100157 0.617235
| 23> N -1.884966 -2.527607 -1.578982
| 24> C -2.664881 -3.549172 -2.281400
| 25> H -2.474954 -1.829497 -1.031708
| 26> H -1.279571 -1.925402 -2.215561
| 27> H -3.259633 -4.123288 -1.561779
| 28> H -1.991792 -4.230944 -2.813775
| 29> H -3.338231 -3.073756 -3.003955
| 30> H -1.204879 -2.923566 -0.859634
| 31> *
| 32>
| 33>                          ****END OF INPUT****

CARTESIAN COORDINATES (ANGSTROEM)
---------------------------------
  C      2.821971    3.493173    2.716929
  N      2.031893    2.485380    2.005967
  H      3.493737    3.003675    3.431461
  H      2.156449    4.174155    3.259759
  H      3.419280    4.070497    2.001994
  H      1.424368    1.881241    2.639320
  H      2.617127    1.787701    1.451958
  H      1.353302    2.890520    1.291746
  Pb     0.083239    0.003414    0.237376
  Cl     3.160780    0.331292    0.212676
  Cl    -0.054130    3.057305   -0.135497
  Cl     0.201930    0.485308    3.308698
  Cl    -2.940224   -0.300943    0.111918
  Cl    -0.041817   -0.507875   -2.867378
  Cl     0.206850   -3.100157    0.617235
  N     -1.884966   -2.527607   -1.578982
  C     -2.664881   -3.549172   -2.281400
  H     -2.474954   -1.829497   -1.031708
  H     -1.279571   -1.925402   -2.215561
  H     -3.259633   -4.123288   -1.561779
  H     -1.991792   -4.230944   -2.813775
  H     -3.338231   -3.073756   -3.003955
  H     -1.204879   -2.923566   -0.859634

 Total Charge           Charge          ....   -2
 Multiplicity           Mult            ....    1
 Number of Electrons    NEL             ....  164
 Basis Dimension        Dim             ....  468

ORBITAL ENERGIES
----------------

  NO   OCC          E(Eh)            E(eV)
   0   2.0000    -102.585934     -2791.5052
   1   2.0000    -102.583857     -2791.4487
   2   2.0000    -102.582932     -2791.4235
   3   2.0000    -102.581551     -2791.3859
   4   2.0000    -102.579127     -2791.3200
   5   2.0000    -102.578900     -2791.3138
   6   2.0000     -14.693022      -399.8174
   7   2.0000     -14.691853      -399.7857
   8   2.0000     -10.491611      -285.4912
   9   2.0000     -10.490947      -285.4732
  10   2.0000      -9.592740      -261.0317
  11   2.0000      -9.590475      -260.9701
  12   2.0000      -9.589441      -260.9420
  13   2.0000      -9.588162      -260.9072
  14   2.0000      -9.585619      -260.8380
  15   2.0000      -9.585210      -260.8268
  16   2.0000      -7.229168      -196.7157
  17   2.0000      -7.228891      -196.7081
  18   2.0000      -7.228182      -196.6888
  19   2.0000      -7.226862      -196.6529
  20   2.0000      -7.226678      -196.6479
  21   2.0000      -7.225960      -196.6284
  22   2.0000      -7.225875      -196.6261
  23   2.0000      -7.225619      -196.6191
  24   2.0000      -7.224928      -196.6003
  25   2.0000      -7.224546      -196.5899
  26   2.0000      -7.224369      -196.5851
  27   2.0000      -7.223650      -196.5655
  28   2.0000      -7.222017      -196.5211
  29   2.0000      -7.221838      -196.5162
  30   2.0000      -7.221635      -196.5107
  31   2.0000      -7.221415      -196.5047
  32   2.0000      -7.221120      -196.4967
  33   2.0000      -7.220741      -196.4863
  34   2.0000      -5.566806      -151.4805
  35   2.0000      -3.337428       -90.8160
  36   2.0000      -3.336725       -90.7969
  37   2.0000      -3.336583       -90.7930
  38   2.0000      -0.880759       -23.9667
  39   2.0000      -0.880315       -23.9546
  40   2.0000      -0.725448       -19.7404
  41   2.0000      -0.725299       -19.7364
  42   2.0000      -0.724408       -19.7121
  43   2.0000      -0.723156       -19.6781
  44   2.0000      -0.722840       -19.6695
  45   2.0000      -0.634414       -17.2633
  46   2.0000      -0.633943       -17.2505
  47   2.0000      -0.603824       -16.4309
  48   2.0000      -0.601680       -16.3726
  49   2.0000      -0.599550       -16.3146
  50   2.0000      -0.596478       -16.2310
  51   2.0000      -0.595558       -16.2060
  52   2.0000      -0.592442       -16.1212
  53   2.0000      -0.411691       -11.2027
  54   2.0000      -0.411134       -11.1875
  55   2.0000      -0.411019       -11.1844
  56   2.0000      -0.410896       -11.1810
  57   2.0000      -0.363626        -9.8948
  58   2.0000      -0.363318        -9.8864
  59   2.0000      -0.293386        -7.9834
  60   2.0000      -0.291334        -7.9276
  61   2.0000      -0.290772        -7.9123
  62   2.0000      -0.290664        -7.9094
  63   2.0000      -0.290527        -7.9057
  64   2.0000      -0.115570        -3.1448
  65   2.0000      -0.109403        -2.9770
  66   2.0000      -0.108542        -2.9536
  67   2.0000      -0.098204        -2.6723
  68   2.0000      -0.090448        -2.4612
  69   2.0000      -0.087986        -2.3942
  70   2.0000      -0.086295        -2.3482
  71   2.0000      -0.083302        -2.2668
  72   2.0000      -0.082725        -2.2511
  73   2.0000      -0.082694        -2.2502
  74   2.0000      -0.081599        -2.2204
  75   2.0000      -0.079961        -2.1759
  76   2.0000      -0.079734        -2.1697
  77   2.0000      -0.077770        -2.1162
  78   2.0000      -0.076508        -2.0819
  79   2.0000      -0.075780        -2.0621
  80   2.0000      -0.071336        -1.9411
  81   2.0000      -0.047265        -1.2861
  82   0.0000       0.240645         6.5483
  83   0.0000       0.241328         6.5669
  84   0.0000       0.251232         6.8364
  85   0.0000       0.256703         6.9853
  86   0.0000       0.258489         7.0338

Dispersion correction            ...

MULLIKEN ATOMIC CHARGES
-----------------------
   0 C :   -0.269539
   1 N :   -0.292012
   2 H :    0.119320
   3 H :    0.118791
   4 H :    0.120535
   5 H :    0.262547
   6 H :    0.261843
   7 H :    0.259689
   8 Pb:    1.031246
   9 Cl:   -0.698739
  10 Cl:   -0.695945
  11 Cl:   -0.698617
  12 Cl:   -0.688357
  13 Cl:   -0.704892
  14 Cl:   -0.708065
  15 N :   -0.286206
  16 C :   -0.269604
  17 H :    0.263117
  18 H :    0.259845
  19 H :    0.119732
  20 H :    0.119925
  21 H :    0.118969
  22 H :    0.256418
Sum of atomic charges:   -2.0000000

LOEWDIN ATOMIC CHARGES
----------------------
   0 C :   -0.338853
   1 N :    0.033035
   2 H :    0.112442
   3 H :    0.112107
   4 H :    0.112595
   5 H :    0.130211
   6 H :    0.133186
   7 H :    0.136253
   8 Pb:    0.185038
   9 Cl:   -0.506986
  10 Cl:   -0.504287
  11 Cl:   -0.507798
  12 Cl:   -0.478706
  13 Cl:   -0.523598
  14 Cl:   -0.531858
  15 N :    0.034988
  16 C :   -0.338868
  17 H :    0.130312
  18 H :    0.132472
  19 H :    0.112280
  20 H :    0.112489
  21 H :    0.112197
  22 H :    0.141346

  Mayer bond orders larger than 0.1
B(  0-C ,  1-N ) :   0.9395 B(  0-C ,  2-H ) :   0.9607 B(  0-C ,  3-H ) :   0.9603
B(  0-C ,  4-H ) :   0.9600 B(  1-N ,  5-H ) :   0.7427 B(  1-N ,  6-H ) :   0.7447
B(  1-N ,  7-H ) :   0.7519 B(  5-H , 11-Cl) :   0.2676 B(  6-H ,  9-Cl) :   0.2663
B(  7-H , 10-Cl) :   0.2585 B(  8-Pb,  9-Cl) :   0.2681 B(  8-Pb, 10-Cl) :   0.2811
B(  8-Pb, 11-Cl) :   0.2671 B(  8-Pb, 12-Cl) :   0.2857 B(  8-Pb, 13-Cl) :   0.2555
B(  8-Pb, 14-Cl) :   0.2654 B( 12-Cl, 17-H ) :   0.2639 B( 13-Cl, 18-H ) :   0.2704
B( 14-Cl, 22-H ) :   0.2562 B( 15-N , 16-C ) :   0.9407 B( 15-N , 17-H ) :   0.7435
B( 15-N , 18-H ) :   0.7438 B( 15-N , 22-H ) :   0.7569 B( 16-C , 19-H ) :   0.9599
B( 16-C , 20-H ) :   0.9601 B( 16-C , 21-H ) :   0.9605

MP2 TOTAL ENERGY:    -3146.563382524 Eh
Dispersion correction           -0.027652458
FINAL SINGLE POINT ENERGY     -3146.591034982555

DIPOLE MOMENT
-------------
                                X             Y             Z
Electronic contribution:     -0.25708       1.48263       2.50778
Nuclear contribution   :      0.10415      -1.41379      -2.39305
                        -----------------------------------------
Total Dipole Moment    :     -0.15293       0.06884       0.11473
                        -----------------------------------------
Magnitude (a.u.)       :      0.20320
Magnitude (Debye)      :      0.51649

                             ****ORCA TERMINATED NORMALLY****
TOTAL RUN TIME: 0 days 0 hours 51 minutes 18 seconds 243 msec
