                         Program Version 3.0.3 - RELEASE   -
|  1> ! RIJCOSX RI-B2PLYP D3BJ def2-TZVP ECP{def2-TZVP} TIGHTSCF Grid5 FinalGrid6 SlowConv MORead
|  2> %method
|  3>  RunTyp Gradient
|  4>  end
|  5> %maxcore 1000
|  6> %moinp "previous.gbw"
|  7> *xyz 0 1
|  8> C -0.743285 -0.760097 -1.315690
|  9> N -0.792355 0.411053 -0.422831
| 10> H -0.189553 0.259651 0.374234
| 11> H -1.739450 0.557781 -0.100655
| 12> H -0.482051 1.232710 -0.923558
| 13> H -1.121900 -1.649220 -0.807955
| 14> H 0.276707 -0.962556 -1.644700
| 15> H -1.350580 -0.577428 -2.201820
| 16> Pb -2.951850 -2.846840 -2.809090
| 17> Cl -0.570757 -3.352070 -3.380400
| 18> Cl -3.527150 -0.528350 -3.375630
| 19> Cl -3.353410 -3.306920 -0.379140
| 20> *
| 21>
| 22>                          ****END OF INPUT****

CARTESIAN COORDINATES (ANGSTROEM)
---------------------------------
  C     -0.743285   -0.760097   -1.315690
  N     -0.792355    0.411053   -0.422831
  H     -0.189553    0.259651    0.374234
  H     -1.739450    0.557781   -0.100655
  H     -0.482051    1.232710   -0.923558
  H     -1.121900   -1.649220   -0.807955
  H      0.276707   -0.962556   -1.644700
  H     -1.350580   -0.577428   -2.201820
  Pb    -2.951850   -2.846840   -2.809090
  Cl    -0.570757   -3.352070   -3.380400
  Cl    -3.527150   -0.528350   -3.375630
  Cl    -3.353410   -3.306920   -0.379140

 Total Charge           Charge          ....    0
 Multiplicity           Mult            ....    1
 Number of Electrons    NEL             ....   92
 Basis Dimension        Dim             ....  259

ORBITAL ENERGIES
----------------

  NO   OCC          E(Eh)            E(eV)
   0   2.0000    -102.832522     -2798.2152
   1   2.0000    -102.821006     -2797.9018
   2   2.0000    -102.819922     -2797.8723
   3   2.0000     -15.054838      -409.6630
   4   2.0000     -10.717649      -291.6421
   5   2.0000      -9.840967      -267.7863
   6   2.0000      -9.828659      -267.4514
   7   2.0000      -9.827673      -267.4246
   8   2.0000      -7.477825      -203.4820
   9   2.0000      -7.476244      -203.4389
  10   2.0000      -7.476052      -203.4337
  11   2.0000      -7.465592      -203.1491
  12   2.0000      -7.464658      -203.1237
  13   2.0000      -7.463966      -203.1048
  14   2.0000      -7.463794      -203.1002
  15   2.0000      -7.462969      -203.0777
  16   2.0000      -7.462783      -203.0726
  17   2.0000      -5.756564      -156.6441
  18   2.0000      -3.528698       -96.0207
  19   2.0000      -3.526617       -95.9641
  20   2.0000      -3.526431       -95.9591
  21   2.0000      -1.232122       -33.5278
  22   2.0000      -0.935454       -25.4550
  23   2.0000      -0.931126       -25.3372
  24   2.0000      -0.924239       -25.1498
  25   2.0000      -0.917211       -24.9586
  26   2.0000      -0.916911       -24.9504
  27   2.0000      -0.894953       -24.3529
  28   2.0000      -0.856960       -23.3191
  29   2.0000      -0.835845       -22.7445
  30   2.0000      -0.829615       -22.5750
  31   2.0000      -0.765671       -20.8350
  32   2.0000      -0.763971       -20.7887
  33   2.0000      -0.645093       -17.5539
  34   2.0000      -0.546087       -14.8598
  35   2.0000      -0.539504       -14.6806
  36   2.0000      -0.519184       -14.1277
  37   2.0000      -0.368699       -10.0328
  38   2.0000      -0.362451        -9.8628
  39   2.0000      -0.341492        -9.2925
  40   2.0000      -0.328478        -8.9384
  41   2.0000      -0.326158        -8.8752
  42   2.0000      -0.319183        -8.6854
  43   2.0000      -0.318194        -8.6585
  44   2.0000      -0.312877        -8.5138
  45   2.0000      -0.236703        -6.4410
  46   0.0000      -0.040245        -1.0951
  47   0.0000       0.018888         0.5140
  48   0.0000       0.029093         0.7917
  49   0.0000       0.039845         1.0842
  50   0.0000       0.074690         2.0324

Dispersion correction            ...

MULLIKEN ATOMIC CHARGES
-----------------------
   0 C :   -0.374328
   1 N :   -0.273426
   2 H :    0.311396
   3 H :    0.326861
   4 H :    0.312667
   5 H :    0.195027
   6 H :    0.194130
   7 H :    0.185362
   8 Pb:    0.751852
   9 Cl:   -0.537984
  10 Cl:   -0.542146
  11 Cl:   -0.549409
Sum of atomic charges:   -0.0000000

LOEWDIN ATOMIC CHARGES
----------------------
   0 C :   -0.320632
   1 N :    0.161297
   2 H :    0.209410
   3 H :    0.216068
   4 H :    0.211128
   5 H :    0.134709
   6 H :    0.133432
   7 H :    0.123711
   8 Pb:   -0.226984
   9 Cl:   -0.209214
  10 Cl:   -0.198912
  11 Cl:   -0.234012

  Mayer bond orders larger than 0.1
B(  0-C ,  1-N ) :   0.8179 B(  0-C ,  5-H ) :   0.9128 B(  0-C ,  6-H ) :   0.9456
B(  0-C ,  7-H ) :   0.9012 B(  1-N ,  2-H ) :   0.8784 B(  1-N ,  3-H ) :   0.8624
B(  1-N ,  4-H ) :   0.8771 B(  7-H , 10-Cl) :   0.1119 B(  8-Pb,  9-Cl) :   0.6668
B(  8-Pb, 10-Cl) :   0.6355 B(  8-Pb, 11-Cl) :   0.6581

MP2 TOTAL ENERGY:    -1669.557398594 Eh
Dispersion correction           -0.012986724
FINAL SINGLE POINT ENERGY     -1669.570385317672

DIPOLE MOMENT
-------------
                                X             Y             Z
Electronic contribution:    -60.88278     -68.57076     -54.49771
Nuclear contribution   :     63.23700      72.57643      57.09941
                        -----------------------------------------
Total Dipole Moment    :      2.35421       4.00567       2.60170
                        -----------------------------------------
Magnitude (a.u.)       :      5.32509
Magnitude (Debye)      :     13.53530

                             ****ORCA TERMINATED NORMALLY****
TOTAL RUN TIME: 0 days 0 hours 8 minutes 37 seconds 496 msec
