                         Program Version 3.0.3 - RELEASE   -
|  1> ! PW6B95 def2-TZVP GCP(DFT/TZ) ECP{def2-TZVP} Grid7 MORead
|  2> %pal nprocs 2 end
|  3> %method
|  4>  RunTyp Gradient
|  5>  end
|  6> %maxcore 2000
|  7> %moinp "previous.gbw"
|  8> *xyz 0 1
|  9> Pb 0.274421 0.470510 0.386916
| 10> Cl 2.902189 0.301502 -0.010169
| 11> Cl 0.387176 3.084387 0.519719
| 12> Cl 0.489395 0.198439 2.902129
| 13> Cs 3.133399 3.717657 2.746265
| 14> *
| 15>
| 16>                          ****END OF INPUT****

CARTESIAN COORDINATES (ANGSTROEM)
---------------------------------
  Pb     0.274421    0.470510    0.386916
  Cl     2.902189    0.301502   -0.010169
  Cl     0.387176    3.084387    0.519719
  Cl     0.489395    0.198439    2.902129
  Cs     3.133399    3.717657    2.746265

 Total Charge           Charge          ....    0
 Multiplicity           Mult            ....    1
 Number of Electrons    NEL             ....   82
 Basis Dimension        Dim             ....  190

ORBITAL ENERGIES
----------------

  NO   OCC          E(Eh)            E(eV)
   0   2.0000    -101.850504     -2771.4931
   1   2.0000    -101.844338     -2771.3253
   2   2.0000    -101.831716     -2770.9819
   3   2.0000      -9.491027      -258.2640
   4   2.0000      -9.484895      -258.0971
   5   2.0000      -9.471566      -257.7344
   6   2.0000      -7.220510      -196.4801
   7   2.0000      -7.218266      -196.4190
   8   2.0000      -7.217855      -196.4078
   9   2.0000      -7.214602      -196.3193
  10   2.0000      -7.211923      -196.2464
  11   2.0000      -7.211629      -196.2384
  12   2.0000      -7.201288      -195.9570
  13   2.0000      -7.198717      -195.8870
  14   2.0000      -7.198355      -195.8772
  15   2.0000      -5.541668      -150.7965
  16   2.0000      -3.365884       -91.5904
  17   2.0000      -3.365132       -91.5699
  18   2.0000      -3.363928       -91.5371
  19   2.0000      -1.118233       -30.4287
  20   2.0000      -0.863234       -23.4898
  21   2.0000      -0.860774       -23.4228
  22   2.0000      -0.855738       -23.2858
  23   2.0000      -0.855311       -23.2742
  24   2.0000      -0.854199       -23.2439
  25   2.0000      -0.765184       -20.8217
  26   2.0000      -0.747620       -20.3438
  27   2.0000      -0.733773       -19.9670
  28   2.0000      -0.588452       -16.0126
  29   2.0000      -0.587868       -15.9967
  30   2.0000      -0.584065       -15.8932
  31   2.0000      -0.483214       -13.1489
  32   2.0000      -0.315180        -8.5765
  33   2.0000      -0.306372        -8.3368
  34   2.0000      -0.300711        -8.1828
  35   2.0000      -0.282734        -7.6936
  36   2.0000      -0.280529        -7.6336
  37   2.0000      -0.269637        -7.3372
  38   2.0000      -0.260086        -7.0773
  39   2.0000      -0.256661        -6.9841
  40   2.0000      -0.249215        -6.7815
  41   0.0000      -0.061509        -1.6738
  42   0.0000      -0.015104        -0.4110
  43   0.0000      -0.014892        -0.4052
  44   0.0000      -0.011993        -0.3264
  45   0.0000      -0.008501        -0.2313

MULLIKEN ATOMIC CHARGES
-----------------------
   0 Pb:    0.785285
   1 Cl:   -0.543999
   2 Cl:   -0.558183
   3 Cl:   -0.513506
   4 Cs:    0.830403
Sum of atomic charges:   -0.0000000

LOEWDIN ATOMIC CHARGES
----------------------
   0 Pb:    0.075472
   1 Cl:   -0.251230
   2 Cl:   -0.188605
   3 Cl:   -0.174701
   4 Cs:    0.539064

  Mayer bond orders larger than 0.1
B(  0-Pb,  1-Cl) :   0.6831 B(  0-Pb,  2-Cl) :   0.5967 B(  0-Pb,  3-Cl) :   0.7409
B(  2-Cl,  4-Cs) :   0.1597

FINAL SINGLE POINT ENERGY     -1595.064771107276

DIPOLE MOMENT
-------------
                                X             Y             Z
Electronic contribution:     26.61491      54.70891      26.07437
Nuclear contribution   :    -24.67675     -51.49400     -24.09191
                        -----------------------------------------
Total Dipole Moment    :      1.93816       3.21491       1.98245
                        -----------------------------------------
Magnitude (a.u.)       :      4.24526
Magnitude (Debye)      :     10.79059

                             ****ORCA TERMINATED NORMALLY****
TOTAL RUN TIME: 0 days 0 hours 12 minutes 40 seconds 113 msec
