                         Program Version 3.0.3 - RELEASE   -
|  1> ! PW6B95 def2-TZVP GCP(DFT/TZ) ECP{def2-TZVP} Grid7 MORead
|  2> %pal nprocs 2 end
|  3> %method
|  4>  RunTyp Gradient
|  5>  end
|  6> %maxcore 2000
|  7> %moinp "previous.gbw"
|  8> *xyz -1 1
|  9> Pb 1.361952 0.760627 0.779324
| 10> Cl -0.890403 -0.266062 0.165377
| 11> Cl 0.895595 1.189151 3.328832
| 12> Cl 1.211279 3.048344 -0.144333
| 13> *
| 14>
| 15>                          ****END OF INPUT****

CARTESIAN COORDINATES (ANGSTROEM)
---------------------------------
  Pb     1.361952    0.760627    0.779324
  Cl    -0.890403   -0.266062    0.165377
  Cl     0.895595    1.189151    3.328832
  Cl     1.211279    3.048344   -0.144333

 Total Charge           Charge          ....   -1
 Multiplicity           Mult            ....    1
 Number of Electrons    NEL             ....   74
 Basis Dimension        Dim             ....  161

ORBITAL ENERGIES
----------------

  NO   OCC          E(Eh)            E(eV)
   0   2.0000    -101.726957     -2768.1312
   1   2.0000    -101.717275     -2767.8678
   2   2.0000    -101.708813     -2767.6375
   3   2.0000      -9.368288      -254.9241
   4   2.0000      -9.358010      -254.6444
   5   2.0000      -9.349097      -254.4019
   6   2.0000      -7.097871      -193.1429
   7   2.0000      -7.095149      -193.0688
   8   2.0000      -7.095124      -193.0681
   9   2.0000      -7.087645      -192.8646
  10   2.0000      -7.084934      -192.7909
  11   2.0000      -7.084896      -192.7898
  12   2.0000      -7.078752      -192.6226
  13   2.0000      -7.076076      -192.5498
  14   2.0000      -7.076031      -192.5486
  15   2.0000      -5.410521      -147.2278
  16   2.0000      -3.234289       -88.0095
  17   2.0000      -3.233869       -87.9981
  18   2.0000      -3.233656       -87.9923
  19   2.0000      -0.736381       -20.0379
  20   2.0000      -0.732029       -19.9195
  21   2.0000      -0.725342       -19.7375
  22   2.0000      -0.724863       -19.7245
  23   2.0000      -0.724721       -19.7207
  24   2.0000      -0.642892       -17.4940
  25   2.0000      -0.622615       -16.9422
  26   2.0000      -0.612602       -16.6698
  27   2.0000      -0.358890        -9.7659
  28   2.0000      -0.197017        -5.3611
  29   2.0000      -0.187494        -5.1020
  30   2.0000      -0.173726        -4.7273
  31   2.0000      -0.158677        -4.3178
  32   2.0000      -0.154892        -4.2148
  33   2.0000      -0.149302        -4.0627
  34   2.0000      -0.141350        -3.8463
  35   2.0000      -0.138346        -3.7646
  36   2.0000      -0.111517        -3.0345
  37   0.0000       0.114891         3.1263
  38   0.0000       0.128002         3.4831
  39   0.0000       0.138168         3.7597
  40   0.0000       0.231779         6.3070
  41   0.0000       0.241432         6.5697

MULLIKEN ATOMIC CHARGES
-----------------------
   0 Pb:    0.723393
   1 Cl:   -0.574580
   2 Cl:   -0.595348
   3 Cl:   -0.553466
Sum of atomic charges:   -1.0000000

LOEWDIN ATOMIC CHARGES
----------------------
   0 Pb:   -0.186031
   1 Cl:   -0.272652
   2 Cl:   -0.324789
   3 Cl:   -0.216528

  Mayer bond orders larger than 0.1
B(  0-Pb,  1-Cl) :   0.7135 B(  0-Pb,  2-Cl) :   0.6809 B(  0-Pb,  3-Cl) :   0.7470

FINAL SINGLE POINT ENERGY     -1574.931896447507

DIPOLE MOMENT
-------------
                                X             Y             Z
Electronic contribution:     49.20654     -28.83308     -17.57138
Nuclear contribution   :    -47.42470      27.92462      16.72458
                        -----------------------------------------
Total Dipole Moment    :      1.78184      -0.90846      -0.84680
                        -----------------------------------------
Magnitude (a.u.)       :      2.17194
Magnitude (Debye)      :      5.52063

                             ****ORCA TERMINATED NORMALLY****
TOTAL RUN TIME: 0 days 0 hours 8 minutes 43 seconds 802 msec
