                         Program Version 3.0.3 - RELEASE   -
|  1> ! RIJCOSX RI-B2PLYP D3BJ def2-TZVP ECP{def2-TZVP} TIGHTSCF Grid5 FinalGrid6 SlowConv MORead
|  2> %method
|  3>  RunTyp Gradient
|  4>  end
|  5> %maxcore 1000
|  6> %moinp "previous.gbw"
|  7> *xyz 0 1
|  8> C -0.394281 0.276013 -0.426662
|  9> N -1.165380 -0.685592 -1.253010
| 10> H 0.248796 -0.278576 0.260517
| 11> H -1.090820 0.897444 0.140826
| 12> H 0.215705 0.904875 -1.079130
| 13> H -1.783150 -1.324970 -0.698370
| 14> H -0.582260 -1.326300 -1.835140
| 15> H -1.813140 -0.240924 -1.938260
| 16> Pb -2.758930 -2.774190 -3.014130
| 17> Cl -0.913606 -3.065070 -1.364940
| 18> Cl -3.426310 -0.920284 -1.398330
| 19> Cl -2.697310 -3.147860 -0.564565
| 20> *
| 21>
| 22>                          ****END OF INPUT****

CARTESIAN COORDINATES (ANGSTROEM)
---------------------------------
  C     -0.394281    0.276013   -0.426662
  N     -1.165380   -0.685592   -1.253010
  H      0.248796   -0.278576    0.260517
  H     -1.090820    0.897444    0.140826
  H      0.215705    0.904875   -1.079130
  H     -1.783150   -1.324970   -0.698370
  H     -0.582260   -1.326300   -1.835140
  H     -1.813140   -0.240924   -1.938260
  Pb    -2.758930   -2.774190   -3.014130
  Cl    -0.913606   -3.065070   -1.364940
  Cl    -3.426310   -0.920284   -1.398330
  Cl    -2.697310   -3.147860   -0.564565

 Total Charge           Charge          ....    0
 Multiplicity           Mult            ....    1
 Number of Electrons    NEL             ....   92
 Basis Dimension        Dim             ....  259

ORBITAL ENERGIES
----------------

  NO   OCC          E(Eh)            E(eV)
   0   2.0000    -102.854684     -2798.8183
   1   2.0000    -102.835013     -2798.2830
   2   2.0000    -102.828984     -2798.1189
   3   2.0000     -14.912273      -405.7836
   4   2.0000     -10.683008      -290.6994
   5   2.0000      -9.869306      -268.5575
   6   2.0000      -9.849726      -268.0247
   7   2.0000      -9.843150      -267.8457
   8   2.0000      -7.506679      -204.2671
   9   2.0000      -7.503421      -204.1785
  10   2.0000      -7.502143      -204.1437
  11   2.0000      -7.487225      -203.7378
  12   2.0000      -7.483574      -203.6384
  13   2.0000      -7.482861      -203.6190
  14   2.0000      -7.479529      -203.5283
  15   2.0000      -7.477694      -203.4784
  16   2.0000      -7.477606      -203.4760
  17   2.0000      -5.797083      -157.7467
  18   2.0000      -3.569361       -97.1272
  19   2.0000      -3.567193       -97.0683
  20   2.0000      -3.566271       -97.0432
  21   2.0000      -1.131788       -30.7975
  22   2.0000      -1.033564       -28.1247
  23   2.0000      -0.972083       -26.4517
  24   2.0000      -0.961846       -26.1731
  25   2.0000      -0.957864       -26.0648
  26   2.0000      -0.955992       -26.0139
  27   2.0000      -0.947121       -25.7725
  28   2.0000      -0.892785       -24.2939
  29   2.0000      -0.841331       -22.8938
  30   2.0000      -0.797152       -21.6916
  31   2.0000      -0.656075       -17.8527
  32   2.0000      -0.650267       -17.6947
  33   2.0000      -0.587992       -16.0001
  34   2.0000      -0.572985       -15.5917
  35   2.0000      -0.507325       -13.8050
  36   2.0000      -0.506914       -13.7938
  37   2.0000      -0.472262       -12.8509
  38   2.0000      -0.421737       -11.4760
  39   2.0000      -0.405550       -11.0356
  40   2.0000      -0.367341        -9.9959
  41   2.0000      -0.349031        -9.4976
  42   2.0000      -0.322156        -8.7663
  43   2.0000      -0.310124        -8.4389
  44   2.0000      -0.250916        -6.8278
  45   2.0000      -0.138969        -3.7815
  46   0.0000      -0.043490        -1.1834
  47   0.0000      -0.005116        -0.1392
  48   0.0000       0.015892         0.4325
  49   0.0000       0.054339         1.4786
  50   0.0000       0.099267         2.7012

Dispersion correction            ...

MULLIKEN ATOMIC CHARGES
-----------------------
   0 C :   -0.280065
   1 N :   -0.218785
   2 H :    0.148209
   3 H :    0.153463
   4 H :    0.144735
   5 H :    0.279201
   6 H :    0.254938
   7 H :    0.259820
   8 Pb:    0.409158
   9 Cl:   -0.333668
  10 Cl:   -0.531257
  11 Cl:   -0.285750
Sum of atomic charges:    0.0000000

LOEWDIN ATOMIC CHARGES
----------------------
   0 C :   -0.311694
   1 N :   -0.031930
   2 H :    0.122235
   3 H :    0.124053
   4 H :    0.120721
   5 H :    0.121401
   6 H :    0.126772
   7 H :    0.139812
   8 Pb:   -0.220825
   9 Cl:   -0.015733
  10 Cl:   -0.131818
  11 Cl:   -0.042995

  Mayer bond orders larger than 0.1
B(  0-C ,  1-N ) :   0.9047 B(  0-C ,  2-H ) :   0.9514 B(  0-C ,  3-H ) :   0.9489
B(  0-C ,  4-H ) :   0.9528 B(  1-N ,  5-H ) :   0.7882 B(  1-N ,  6-H ) :   0.7820
B(  1-N ,  7-H ) :   0.7911 B(  5-H , 11-Cl) :   0.1314 B(  6-H ,  9-Cl) :   0.1341
B(  7-H , 10-Cl) :   0.1343 B(  8-Pb,  9-Cl) :   0.7389 B(  8-Pb, 10-Cl) :   0.5520
B(  8-Pb, 11-Cl) :   0.7569 B(  9-Cl, 11-Cl) :   0.3011

MP2 TOTAL ENERGY:    -1669.190764763 Eh
Dispersion correction           -0.016788316
FINAL SINGLE POINT ENERGY     -1669.207553078177

DIPOLE MOMENT
-------------
                                X             Y             Z
Electronic contribution:    -54.91429     -65.92231    -124.70031
Nuclear contribution   :     56.33710      67.18930     124.15009
                        -----------------------------------------
Total Dipole Moment    :      1.42281       1.26699      -0.55022
                        -----------------------------------------
Magnitude (a.u.)       :      1.98302
Magnitude (Debye)      :      5.04045

                             ****ORCA TERMINATED NORMALLY****
TOTAL RUN TIME: 0 days 0 hours 24 minutes 10 seconds 263 msec
