                         Program Version 3.0.3 - RELEASE   -
|  1> ! RIJCOSX RI-B2PLYP D3BJ def2-TZVP ECP{def2-TZVP} TIGHTSCF Grid5 FinalGrid6 SlowConv MORead
|  2> %method
|  3>  RunTyp Gradient
|  4>  end
|  5> %maxcore 1000
|  6> %moinp "previous.gbw"
|  7> *xyz 0 1
|  8> C -0.306754 -0.743399 -1.466090
|  9> N -0.984515 0.369242 -0.777189
| 10> H -0.782503 0.342425 0.212556
| 11> H -1.985250 0.285506 -0.919071
| 12> H -0.675140 1.251540 -1.160100
| 13> H -0.599882 -1.698270 -1.027630
| 14> H 0.777189 -0.650863 -1.389330
| 15> H -0.577998 -0.756643 -2.522980
| 16> Pb -3.154000 -2.536460 -2.426050
| 17> Cl -0.816549 -3.183670 -2.984870
| 18> Cl -3.352820 -0.176436 -1.855590
| 19> Cl -4.087400 -4.025250 -0.670901
| 20> *
| 21>
| 22>                          ****END OF INPUT****

CARTESIAN COORDINATES (ANGSTROEM)
---------------------------------
  C     -0.306754   -0.743399   -1.466090
  N     -0.984515    0.369242   -0.777189
  H     -0.782503    0.342425    0.212556
  H     -1.985250    0.285506   -0.919071
  H     -0.675140    1.251540   -1.160100
  H     -0.599882   -1.698270   -1.027630
  H      0.777189   -0.650863   -1.389330
  H     -0.577998   -0.756643   -2.522980
  Pb    -3.154000   -2.536460   -2.426050
  Cl    -0.816549   -3.183670   -2.984870
  Cl    -3.352820   -0.176436   -1.855590
  Cl    -4.087400   -4.025250   -0.670901

 Total Charge           Charge          ....    0
 Multiplicity           Mult            ....    1
 Number of Electrons    NEL             ....   92
 Basis Dimension        Dim             ....  259

ORBITAL ENERGIES
----------------

  NO   OCC          E(Eh)            E(eV)
   0   2.0000    -102.874275     -2799.3513
   1   2.0000    -102.831259     -2798.1808
   2   2.0000    -102.822647     -2797.9465
   3   2.0000     -14.989401      -407.8823
   4   2.0000     -10.703373      -291.2536
   5   2.0000      -9.885976      -269.0111
   6   2.0000      -9.840056      -267.7615
   7   2.0000      -9.830005      -267.4880
   8   2.0000      -7.522375      -204.6942
   9   2.0000      -7.521358      -204.6666
  10   2.0000      -7.520642      -204.6471
  11   2.0000      -7.477018      -203.4600
  12   2.0000      -7.475230      -203.4114
  13   2.0000      -7.475055      -203.4066
  14   2.0000      -7.467166      -203.1919
  15   2.0000      -7.465167      -203.1375
  16   2.0000      -7.465047      -203.1343
  17   2.0000      -5.773563      -157.1066
  18   2.0000      -3.546164       -96.4960
  19   2.0000      -3.544038       -96.4382
  20   2.0000      -3.542816       -96.4049
  21   2.0000      -1.186331       -32.2817
  22   2.0000      -0.965361       -26.2688
  23   2.0000      -0.947388       -25.7797
  24   2.0000      -0.942098       -25.6358
  25   2.0000      -0.935243       -25.4493
  26   2.0000      -0.933719       -25.4078
  27   2.0000      -0.904446       -24.6112
  28   2.0000      -0.875712       -23.8293
  29   2.0000      -0.848368       -23.0853
  30   2.0000      -0.834827       -22.7168
  31   2.0000      -0.720962       -19.6184
  32   2.0000      -0.716833       -19.5060
  33   2.0000      -0.612956       -16.6794
  34   2.0000      -0.556489       -15.1428
  35   2.0000      -0.523452       -14.2438
  36   2.0000      -0.520572       -14.1655
  37   2.0000      -0.403531       -10.9806
  38   2.0000      -0.391426       -10.6513
  39   2.0000      -0.388742       -10.5782
  40   2.0000      -0.358302        -9.7499
  41   2.0000      -0.337221        -9.1762
  42   2.0000      -0.331056        -9.0085
  43   2.0000      -0.320215        -8.7135
  44   2.0000      -0.316496        -8.6123
  45   2.0000      -0.249813        -6.7978
  46   0.0000      -0.010441        -0.2841
  47   0.0000       0.003393         0.0923
  48   0.0000       0.051427         1.3994
  49   0.0000       0.059574         1.6211
  50   0.0000       0.063467         1.7270

Dispersion correction            ...

MULLIKEN ATOMIC CHARGES
-----------------------
   0 C :   -0.378811
   1 N :   -0.265674
   2 H :    0.280890
   3 H :    0.286303
   4 H :    0.282855
   5 H :    0.197182
   6 H :    0.166057
   7 H :    0.200896
   8 Pb:    0.763082
   9 Cl:   -0.527059
  10 Cl:   -0.502446
  11 Cl:   -0.503275
Sum of atomic charges:   -0.0000000

LOEWDIN ATOMIC CHARGES
----------------------
   0 C :   -0.351792
   1 N :    0.114614
   2 H :    0.192984
   3 H :    0.070299
   4 H :    0.194661
   5 H :    0.128496
   6 H :    0.124379
   7 H :    0.128554
   8 Pb:   -0.193273
   9 Cl:   -0.169488
  10 Cl:   -0.055548
  11 Cl:   -0.183885

  Mayer bond orders larger than 0.1
B(  0-C ,  1-N ) :   0.8351 B(  0-C ,  5-H ) :   0.9367 B(  0-C ,  6-H ) :   0.9474
B(  0-C ,  7-H ) :   0.9331 B(  1-N ,  2-H ) :   0.8814 B(  1-N ,  3-H ) :   0.7060
B(  1-N ,  4-H ) :   0.8869 B(  3-H , 10-Cl) :   0.2950 B(  8-Pb,  9-Cl) :   0.6585
B(  8-Pb, 10-Cl) :   0.4930 B(  8-Pb, 11-Cl) :   0.7923

MP2 TOTAL ENERGY:    -1669.551806348 Eh
Dispersion correction           -0.013858130
FINAL SINGLE POINT ENERGY     -1669.565664478095

DIPOLE MOMENT
-------------
                                X             Y             Z
Electronic contribution:    -64.38706     -46.23704     -50.32324
Nuclear contribution   :     66.56988      50.01014      51.24467
                        -----------------------------------------
Total Dipole Moment    :      2.18282       3.77310       0.92143
                        -----------------------------------------
Magnitude (a.u.)       :      4.45534
Magnitude (Debye)      :     11.32458

                             ****ORCA TERMINATED NORMALLY****
TOTAL RUN TIME: 0 days 0 hours 9 minutes 7 seconds 455 msec
