                         Program Version 3.0.3 - RELEASE   -
|  1> ! RIJCOSX RI-B2PLYP D3BJ def2-TZVP ECP{def2-TZVP} TIGHTSCF Grid5 FinalGrid6 SlowConv MORead
|  2> %method
|  3>  RunTyp Gradient
|  4>  end
|  5> %maxcore 1000
|  6> %moinp "previous.gbw"
|  7> *xyz 0 1
|  8> C -0.394281 0.276013 -0.426662
|  9> N -1.165380 -0.685592 -1.253010
| 10> H 0.248796 -0.278576 0.260517
| 11> H -1.090820 0.897444 0.140826
| 12> H 0.215705 0.904875 -1.079130
| 13> H -1.783150 -1.324970 -0.698370
| 14> H -0.582260 -1.326300 -1.835140
| 15> H -1.813140 -0.240924 -1.938260
| 16> Pb -2.974530 -2.987890 -2.953930
| 17> Cl -0.471630 -2.944990 -3.133910
| 18> Cl -3.379440 -0.506106 -3.275620
| 19> Cl -3.277680 -3.166810 -0.474160
| 20> *
| 21>
| 22>                          ****END OF INPUT****

CARTESIAN COORDINATES (ANGSTROEM)
---------------------------------
  C     -0.394281    0.276013   -0.426662
  N     -1.165380   -0.685592   -1.253010
  H      0.248796   -0.278576    0.260517
  H     -1.090820    0.897444    0.140826
  H      0.215705    0.904875   -1.079130
  H     -1.783150   -1.324970   -0.698370
  H     -0.582260   -1.326300   -1.835140
  H     -1.813140   -0.240924   -1.938260
  Pb    -2.974530   -2.987890   -2.953930
  Cl    -0.471630   -2.944990   -3.133910
  Cl    -3.379440   -0.506106   -3.275620
  Cl    -3.277680   -3.166810   -0.474160

 Total Charge           Charge          ....    0
 Multiplicity           Mult            ....    1
 Number of Electrons    NEL             ....   92
 Basis Dimension        Dim             ....  259

ORBITAL ENERGIES
----------------

  NO   OCC          E(Eh)            E(eV)
   0   2.0000    -102.862680     -2799.0358
   1   2.0000    -102.859525     -2798.9500
   2   2.0000    -102.856844     -2798.8770
   3   2.0000     -14.963793      -407.1855
   4   2.0000     -10.711586      -291.4771
   5   2.0000      -9.870866      -268.5999
   6   2.0000      -9.867591      -268.5108
   7   2.0000      -9.864296      -268.4211
   8   2.0000      -7.507878      -204.2998
   9   2.0000      -7.506293      -204.2566
  10   2.0000      -7.505785      -204.2428
  11   2.0000      -7.504585      -204.2101
  12   2.0000      -7.503020      -204.1675
  13   2.0000      -7.502535      -204.1543
  14   2.0000      -7.501426      -204.1242
  15   2.0000      -7.499631      -204.0753
  16   2.0000      -7.499294      -204.0662
  17   2.0000      -5.792012      -157.6087
  18   2.0000      -3.562904       -96.9516
  19   2.0000      -3.562754       -96.9475
  20   2.0000      -3.562307       -96.9353
  21   2.0000      -1.142692       -31.0942
  22   2.0000      -0.968822       -26.3630
  23   2.0000      -0.967372       -26.3235
  24   2.0000      -0.953116       -25.9356
  25   2.0000      -0.952096       -25.9078
  26   2.0000      -0.951753       -25.8985
  27   2.0000      -0.900691       -24.5091
  28   2.0000      -0.872326       -23.7372
  29   2.0000      -0.866397       -23.5758
  30   2.0000      -0.859654       -23.3924
  31   2.0000      -0.669992       -18.2314
  32   2.0000      -0.669204       -18.2100
  33   2.0000      -0.604248       -16.4424
  34   2.0000      -0.557519       -15.1709
  35   2.0000      -0.523195       -14.2369
  36   2.0000      -0.522589       -14.2204
  37   2.0000      -0.394851       -10.7445
  38   2.0000      -0.393206       -10.6997
  39   2.0000      -0.379058       -10.3147
  40   2.0000      -0.361598        -9.8396
  41   2.0000      -0.360812        -9.8182
  42   2.0000      -0.351674        -9.5695
  43   2.0000      -0.351067        -9.5530
  44   2.0000      -0.344532        -9.3752
  45   2.0000      -0.293355        -7.9826
  46   0.0000       0.009729         0.2648
  47   0.0000       0.027083         0.7370
  48   0.0000       0.032567         0.8862
  49   0.0000       0.036908         1.0043
  50   0.0000       0.085921         2.3380

Dispersion correction            ...

MULLIKEN ATOMIC CHARGES
-----------------------
   0 C :   -0.277093
   1 N :   -0.311979
   2 H :    0.163857
   3 H :    0.164370
   4 H :    0.163482
   5 H :    0.280559
   6 H :    0.286671
   7 H :    0.285580
   8 Pb:    0.754525
   9 Cl:   -0.502875
  10 Cl:   -0.510018
  11 Cl:   -0.497078
Sum of atomic charges:   -0.0000000

LOEWDIN ATOMIC CHARGES
----------------------
   0 C :   -0.287069
   1 N :    0.075931
   2 H :    0.128076
   3 H :    0.128250
   4 H :    0.128169
   5 H :    0.180283
   6 H :    0.154062
   7 H :    0.153549
   8 Pb:   -0.130775
   9 Cl:   -0.165304
  10 Cl:   -0.181426
  11 Cl:   -0.183746

  Mayer bond orders larger than 0.1
B(  0-C ,  1-N ) :   0.8893 B(  0-C ,  2-H ) :   0.9525 B(  0-C ,  3-H ) :   0.9519
B(  0-C ,  4-H ) :   0.9518 B(  1-N ,  5-H ) :   0.8244 B(  1-N ,  6-H ) :   0.7940
B(  1-N ,  7-H ) :   0.7953 B(  5-H , 11-Cl) :   0.1330 B(  6-H ,  9-Cl) :   0.1652
B(  7-H , 10-Cl) :   0.1646 B(  8-Pb,  9-Cl) :   0.6429 B(  8-Pb, 10-Cl) :   0.6303
B(  8-Pb, 11-Cl) :   0.6955

MP2 TOTAL ENERGY:    -1669.621783130 Eh
Dispersion correction           -0.013899627
FINAL SINGLE POINT ENERGY     -1669.635682756786

DIPOLE MOMENT
-------------
                                X             Y             Z
Electronic contribution:    -67.43331     -86.64046     -68.71774
Nuclear contribution   :     68.53657      87.94254      69.55848
                        -----------------------------------------
Total Dipole Moment    :      1.10326       1.30207       0.84074
                        -----------------------------------------
Magnitude (a.u.)       :      1.90248
Magnitude (Debye)      :      4.83572

                             ****ORCA TERMINATED NORMALLY****
TOTAL RUN TIME: 0 days 0 hours 12 minutes 49 seconds 351 msec
