                         Program Version 3.0.3 - RELEASE   -
|  1> ! RIJCOSX RI-B2PLYP D3BJ def2-TZVP ECP{def2-TZVP} TIGHTSCF Grid5 FinalGrid6 SlowConv MORead
|  2> %method
|  3>  RunTyp Gradient
|  4>  end
|  5> %maxcore 1000
|  6> %moinp "previous.gbw"
|  7> *xyz 0 1
|  8> C -0.394281 0.276013 -0.426662
|  9> N -1.165380 -0.685592 -1.253010
| 10> H 0.248796 -0.278576 0.260517
| 11> H -1.090820 0.897444 0.140826
| 12> H 0.215705 0.904875 -1.079130
| 13> H -1.783150 -1.324970 -0.698370
| 14> H -0.582260 -1.326300 -1.835140
| 15> H -1.813140 -0.240924 -1.938260
| 16> Pb -2.740180 -2.770760 -3.034480
| 17> Cl -0.920502 -3.065040 -1.370100
| 18> Cl -3.425370 -0.928022 -1.406920
| 19> Cl -3.054370 -2.929260 -0.594574
| 20> *
| 21>
| 22>                          ****END OF INPUT****

CARTESIAN COORDINATES (ANGSTROEM)
---------------------------------
  C     -0.394281    0.276013   -0.426662
  N     -1.165380   -0.685592   -1.253010
  H      0.248796   -0.278576    0.260517
  H     -1.090820    0.897444    0.140826
  H      0.215705    0.904875   -1.079130
  H     -1.783150   -1.324970   -0.698370
  H     -0.582260   -1.326300   -1.835140
  H     -1.813140   -0.240924   -1.938260
  Pb    -2.740180   -2.770760   -3.034480
  Cl    -0.920502   -3.065040   -1.370100
  Cl    -3.425370   -0.928022   -1.406920
  Cl    -3.054370   -2.929260   -0.594574

 Total Charge           Charge          ....    0
 Multiplicity           Mult            ....    1
 Number of Electrons    NEL             ....   92
 Basis Dimension        Dim             ....  259

ORBITAL ENERGIES
----------------

  NO   OCC          E(Eh)            E(eV)
   0   2.0000    -102.830529     -2798.1609
   1   2.0000    -102.821062     -2797.9033
   2   2.0000    -102.796051     -2797.2228
   3   2.0000     -14.907671      -405.6584
   4   2.0000     -10.680129      -290.6211
   5   2.0000      -9.844659      -267.8868
   6   2.0000      -9.836525      -267.6655
   7   2.0000      -9.812218      -267.0040
   8   2.0000      -7.481110      -203.5714
   9   2.0000      -7.479205      -203.5195
  10   2.0000      -7.478651      -203.5044
  11   2.0000      -7.472605      -203.3399
  12   2.0000      -7.471255      -203.3032
  13   2.0000      -7.470147      -203.2730
  14   2.0000      -7.448681      -202.6889
  15   2.0000      -7.446357      -202.6257
  16   2.0000      -7.445857      -202.6121
  17   2.0000      -5.816873      -158.2852
  18   2.0000      -3.589821       -97.6840
  19   2.0000      -3.587804       -97.6291
  20   2.0000      -3.584705       -97.5448
  21   2.0000      -1.125985       -30.6396
  22   2.0000      -0.997850       -27.1529
  23   2.0000      -0.990856       -26.9626
  24   2.0000      -0.981060       -26.6960
  25   2.0000      -0.977661       -26.6035
  26   2.0000      -0.977341       -26.5948
  27   2.0000      -0.944596       -25.7038
  28   2.0000      -0.886888       -24.1334
  29   2.0000      -0.840398       -22.8684
  30   2.0000      -0.789269       -21.4771
  31   2.0000      -0.650417       -17.6987
  32   2.0000      -0.646000       -17.5786
  33   2.0000      -0.582649       -15.8547
  34   2.0000      -0.570921       -15.5356
  35   2.0000      -0.502361       -13.6699
  36   2.0000      -0.501407       -13.6440
  37   2.0000      -0.438949       -11.9444
  38   2.0000      -0.412930       -11.2364
  39   2.0000      -0.383023       -10.4226
  40   2.0000      -0.356595        -9.7035
  41   2.0000      -0.344307        -9.3691
  42   2.0000      -0.315640        -8.5890
  43   2.0000      -0.304221        -8.2783
  44   2.0000      -0.211145        -5.7456
  45   2.0000      -0.188011        -5.1160
  46   0.0000      -0.049094        -1.3359
  47   0.0000      -0.011935        -0.3248
  48   0.0000       0.013151         0.3579
  49   0.0000       0.054708         1.4887
  50   0.0000       0.099841         2.7168

Dispersion correction            ...

MULLIKEN ATOMIC CHARGES
-----------------------
   0 C :   -0.276345
   1 N :   -0.198763
   2 H :    0.151112
   3 H :    0.150798
   4 H :    0.138499
   5 H :    0.284972
   6 H :    0.231580
   7 H :    0.221831
   8 Pb:    0.695718
   9 Cl:   -0.467571
  10 Cl:   -0.490844
  11 Cl:   -0.440987
Sum of atomic charges:   -0.0000000

LOEWDIN ATOMIC CHARGES
----------------------
   0 C :   -0.312761
   1 N :   -0.034967
   2 H :    0.123466
   3 H :    0.122948
   4 H :    0.118909
   5 H :    0.127908
   6 H :    0.119623
   7 H :    0.123773
   8 Pb:    0.044730
   9 Cl:   -0.112756
  10 Cl:   -0.139028
  11 Cl:   -0.181847

  Mayer bond orders larger than 0.1
B(  0-C ,  1-N ) :   0.9064 B(  0-C ,  2-H ) :   0.9520 B(  0-C ,  3-H ) :   0.9505
B(  0-C ,  4-H ) :   0.9532 B(  1-N ,  5-H ) :   0.7942 B(  1-N ,  6-H ) :   0.7780
B(  1-N ,  7-H ) :   0.7736 B(  5-H , 11-Cl) :   0.1465 B(  6-H ,  9-Cl) :   0.1796
B(  7-H , 10-Cl) :   0.1882 B(  8-Pb,  9-Cl) :   0.6980 B(  8-Pb, 10-Cl) :   0.6419
B(  8-Pb, 11-Cl) :   0.6805

MP2 TOTAL ENERGY:    -1669.245394609 Eh
Dispersion correction           -0.016780693
FINAL SINGLE POINT ENERGY     -1669.262175301543

DIPOLE MOMENT
-------------
                                X             Y             Z
Electronic contribution:    -48.83031     -68.80777    -126.38820
Nuclear contribution   :     49.97419      69.98846     124.79963
                        -----------------------------------------
Total Dipole Moment    :      1.14388       1.18069      -1.58857
                        -----------------------------------------
Magnitude (a.u.)       :      2.28606
Magnitude (Debye)      :      5.81069

                             ****ORCA TERMINATED NORMALLY****
TOTAL RUN TIME: 0 days 0 hours 20 minutes 32 seconds 536 msec
