                         Program Version 3.0.3 - RELEASE   -
|  1> ! RIJCOSX RI-B2PLYP D3BJ def2-TZVP ECP{def2-TZVP} TIGHTSCF Grid5 FinalGrid6 SlowConv MORead
|  2> %method
|  3>  RunTyp Gradient
|  4>  end
|  5> %maxcore 1000
|  6> %moinp "previous.gbw"
|  7> *xyz 0 1
|  8> C -0.394281 0.276013 -0.426662
|  9> N -1.165380 -0.685592 -1.253010
| 10> H 0.248796 -0.278576 0.260517
| 11> H -1.090820 0.897444 0.140826
| 12> H 0.215705 0.904875 -1.079130
| 13> H -1.783150 -1.324970 -0.698370
| 14> H -0.582260 -1.326300 -1.835140
| 15> H -1.813140 -0.240924 -1.938260
| 16> Pb -2.744020 -3.485210 -2.690150
| 17> Cl -1.027100 -3.084180 -4.567750
| 18> Cl -2.783950 1.210650 -2.838520
| 19> Cl -4.650590 -3.437880 -0.961726
| 20> *
| 21>
| 22>                          ****END OF INPUT****

CARTESIAN COORDINATES (ANGSTROEM)
---------------------------------
  C     -0.394281    0.276013   -0.426662
  N     -1.165380   -0.685592   -1.253010
  H      0.248796   -0.278576    0.260517
  H     -1.090820    0.897444    0.140826
  H      0.215705    0.904875   -1.079130
  H     -1.783150   -1.324970   -0.698370
  H     -0.582260   -1.326300   -1.835140
  H     -1.813140   -0.240924   -1.938260
  Pb    -2.744020   -3.485210   -2.690150
  Cl    -1.027100   -3.084180   -4.567750
  Cl    -2.783950    1.210650   -2.838520
  Cl    -4.650590   -3.437880   -0.961726

 Total Charge           Charge          ....    0
 Multiplicity           Mult            ....    1
 Number of Electrons    NEL             ....   92
 Basis Dimension        Dim             ....  259

ORBITAL ENERGIES
----------------

  NO   OCC          E(Eh)            E(eV)
   0   2.0000    -102.876860     -2799.4217
   1   2.0000    -102.876077     -2799.4004
   2   2.0000    -102.768920     -2796.4845
   3   2.0000     -14.996835      -408.0846
   4   2.0000     -10.719054      -291.6803
   5   2.0000      -9.883361      -268.9399
   6   2.0000      -9.882604      -268.9193
   7   2.0000      -9.774896      -265.9884
   8   2.0000      -7.519649      -204.6201
   9   2.0000      -7.519111      -204.6054
  10   2.0000      -7.518920      -204.6002
  11   2.0000      -7.518678      -204.5936
  12   2.0000      -7.518311      -204.5836
  13   2.0000      -7.517945      -204.5737
  14   2.0000      -7.411693      -201.6824
  15   2.0000      -7.410656      -201.6542
  16   2.0000      -7.410526      -201.6507
  17   2.0000      -5.880814      -160.0251
  18   2.0000      -3.655365       -99.4675
  19   2.0000      -3.653996       -99.4303
  20   2.0000      -3.644764       -99.1791
  21   2.0000      -1.166887       -31.7526
  22   2.0000      -1.046206       -28.4687
  23   2.0000      -1.045893       -28.4602
  24   2.0000      -1.042948       -28.3801
  25   2.0000      -1.037236       -28.2246
  26   2.0000      -1.035552       -28.1788
  27   2.0000      -0.892794       -24.2942
  28   2.0000      -0.889988       -24.2178
  29   2.0000      -0.875402       -23.8209
  30   2.0000      -0.787712       -21.4347
  31   2.0000      -0.696303       -18.9474
  32   2.0000      -0.681341       -18.5402
  33   2.0000      -0.622720       -16.9451
  34   2.0000      -0.603033       -16.4094
  35   2.0000      -0.528966       -14.3939
  36   2.0000      -0.528370       -14.3777
  37   2.0000      -0.425782       -11.5861
  38   2.0000      -0.377887       -10.2828
  39   2.0000      -0.375029       -10.2050
  40   2.0000      -0.365385        -9.9426
  41   2.0000      -0.363518        -9.8918
  42   2.0000      -0.318178        -8.6581
  43   2.0000      -0.280587        -7.6352
  44   2.0000      -0.268312        -7.3011
  45   2.0000      -0.267166        -7.2700
  46   0.0000      -0.122439        -3.3317
  47   0.0000      -0.108238        -2.9453
  48   0.0000       0.010672         0.2904
  49   0.0000       0.017884         0.4866
  50   0.0000       0.059145         1.6094

Dispersion correction            ...

MULLIKEN ATOMIC CHARGES
-----------------------
   0 C :   -0.256015
   1 N :   -0.301767
   2 H :    0.144458
   3 H :    0.180905
   4 H :    0.180539
   5 H :    0.269740
   6 H :    0.272863
   7 H :    0.240712
   8 Pb:    0.855158
   9 Cl:   -0.436062
  10 Cl:   -0.713722
  11 Cl:   -0.436809
Sum of atomic charges:   -0.0000000

LOEWDIN ATOMIC CHARGES
----------------------
   0 C :   -0.283984
   1 N :    0.088506
   2 H :    0.119874
   3 H :    0.137131
   4 H :    0.137177
   5 H :    0.194854
   6 H :    0.193300
   7 H :    0.107352
   8 Pb:    0.329362
   9 Cl:   -0.181909
  10 Cl:   -0.661963
  11 Cl:   -0.179701

  Mayer bond orders larger than 0.1
B(  0-C ,  1-N ) :   0.8725 B(  0-C ,  2-H ) :   0.9464 B(  0-C ,  3-H ) :   0.9443
B(  0-C ,  4-H ) :   0.9453 B(  1-N ,  5-H ) :   0.8738 B(  1-N ,  6-H ) :   0.8677
B(  1-N ,  7-H ) :   0.6644 B(  7-H , 10-Cl) :   0.4216 B(  8-Pb,  9-Cl) :   0.8678
B(  8-Pb, 11-Cl) :   0.8793

MP2 TOTAL ENERGY:    -1669.510585784 Eh
Dispersion correction           -0.010531857
FINAL SINGLE POINT ENERGY     -1669.521117641061

DIPOLE MOMENT
-------------
                                X             Y             Z
Electronic contribution:    -32.75545    -140.31203     -29.60449
Nuclear contribution   :     35.04535     137.77242      31.81883
                        -----------------------------------------
Total Dipole Moment    :      2.28989      -2.53961       2.21434
                        -----------------------------------------
Magnitude (a.u.)       :      4.07389
Magnitude (Debye)      :     10.35499

                             ****ORCA TERMINATED NORMALLY****
TOTAL RUN TIME: 0 days 0 hours 12 minutes 26 seconds 302 msec
