                         Program Version 3.0.3 - RELEASE   -
|  1> ! RIJCOSX RI-B2PLYP D3BJ def2-TZVP ECP{def2-TZVP} TIGHTSCF Grid5 FinalGrid6 SlowConv MORead
|  2> %method
|  3>  RunTyp Gradient
|  4>  end
|  5> %maxcore 1000
|  6> %moinp "previous.gbw"
|  7> *xyz 0 1
|  8> C 2.905719 3.576013 2.873338
|  9> N 2.134625 2.614408 2.046990
| 10> H 3.548796 3.021424 3.560517
| 11> H 2.209179 4.197444 3.440826
| 12> H 3.515705 4.204875 2.220874
| 13> H 1.516852 1.975028 2.601630
| 14> H 2.717740 1.973704 1.464858
| 15> H 1.486857 3.059076 1.361735
| 16> Pb 0.837185 0.131547 0.209487
| 17> Cl 3.405529 0.268387 0.089874
| 18> Cl -2.768449 2.735046 -0.108798
| 19> Cl 1.310241 0.320768 2.851419
| 20> *
| 21>
| 22>                          ****END OF INPUT****

CARTESIAN COORDINATES (ANGSTROEM)
---------------------------------
  C      2.905719    3.576013    2.873338
  N      2.134625    2.614408    2.046990
  H      3.548796    3.021424    3.560517
  H      2.209179    4.197444    3.440826
  H      3.515705    4.204875    2.220874
  H      1.516852    1.975028    2.601630
  H      2.717740    1.973704    1.464858
  H      1.486857    3.059076    1.361735
  Pb     0.837185    0.131547    0.209487
  Cl     3.405529    0.268387    0.089874
  Cl    -2.768449    2.735046   -0.108798
  Cl     1.310241    0.320768    2.851419

 Total Charge           Charge          ....    0
 Multiplicity           Mult            ....    1
 Number of Electrons    NEL             ....   92
 Basis Dimension        Dim             ....  259

ORBITAL ENERGIES
----------------

  NO   OCC          E(Eh)            E(eV)
   0   2.0000    -102.911504     -2800.3644
   1   2.0000    -102.904658     -2800.1781
   2   2.0000    -102.737327     -2795.6248
   3   2.0000     -14.992809      -407.9751
   4   2.0000     -10.733343      -292.0691
   5   2.0000      -9.917943      -269.8809
   6   2.0000      -9.913953      -269.7724
   7   2.0000      -9.741579      -265.0818
   8   2.0000      -7.555123      -205.5853
   9   2.0000      -7.553449      -205.5398
  10   2.0000      -7.552794      -205.5220
  11   2.0000      -7.550793      -205.4675
  12   2.0000      -7.549551      -205.4337
  13   2.0000      -7.548461      -205.4041
  14   2.0000      -7.378865      -200.7891
  15   2.0000      -7.377107      -200.7413
  16   2.0000      -7.377048      -200.7397
  17   2.0000      -5.888232      -160.2269
  18   2.0000      -3.661967       -99.6472
  19   2.0000      -3.657984       -99.5388
  20   2.0000      -3.655311       -99.4661
  21   2.0000      -1.178031       -32.0558
  22   2.0000      -1.051690       -28.6179
  23   2.0000      -1.050164       -28.5764
  24   2.0000      -1.048354       -28.5272
  25   2.0000      -1.046043       -28.4643
  26   2.0000      -1.041973       -28.3535
  27   2.0000      -0.947110       -25.7722
  28   2.0000      -0.922650       -25.1066
  29   2.0000      -0.884278       -24.0624
  30   2.0000      -0.737577       -20.0705
  31   2.0000      -0.704899       -19.1813
  32   2.0000      -0.702343       -19.1117
  33   2.0000      -0.635535       -17.2938
  34   2.0000      -0.614316       -16.7164
  35   2.0000      -0.549046       -14.9403
  36   2.0000      -0.545388       -14.8408
  37   2.0000      -0.429523       -11.6879
  38   2.0000      -0.422007       -11.4834
  39   2.0000      -0.410905       -11.1813
  40   2.0000      -0.394492       -10.7347
  41   2.0000      -0.390145       -10.6164
  42   2.0000      -0.383307       -10.4303
  43   2.0000      -0.228415        -6.2155
  44   2.0000      -0.227841        -6.1999
  45   2.0000      -0.224329        -6.1043
  46   0.0000      -0.126782        -3.4499
  47   0.0000      -0.066904        -1.8206
  48   0.0000      -0.033154        -0.9022
  49   0.0000       0.007915         0.2154
  50   0.0000       0.048746         1.3264

Dispersion correction            ...

MULLIKEN ATOMIC CHARGES
-----------------------
   0 C :   -0.274546
   1 N :   -0.333209
   2 H :    0.171687
   3 H :    0.174649
   4 H :    0.163959
   5 H :    0.319817
   6 H :    0.276164
   7 H :    0.280870
   8 Pb:    0.774839
   9 Cl:   -0.430686
  10 Cl:   -0.654880
  11 Cl:   -0.468666
Sum of atomic charges:   -0.0000000

LOEWDIN ATOMIC CHARGES
----------------------
   0 C :   -0.283982
   1 N :    0.059007
   2 H :    0.133005
   3 H :    0.132264
   4 H :    0.128197
   5 H :    0.087568
   6 H :    0.163450
   7 H :    0.197764
   8 Pb:    0.328971
   9 Cl:   -0.170245
  10 Cl:   -0.646060
  11 Cl:   -0.129938

  Mayer bond orders larger than 0.1
B(  0-C ,  1-N ) :   0.8828 B(  0-C ,  2-H ) :   0.9481 B(  0-C ,  3-H ) :   0.9484
B(  0-C ,  4-H ) :   0.9512 B(  1-N ,  5-H ) :   0.7055 B(  1-N ,  6-H ) :   0.8228
B(  1-N ,  7-H ) :   0.8650 B(  5-H , 11-Cl) :   0.2435 B(  6-H ,  9-Cl) :   0.1435
B(  8-Pb,  9-Cl) :   0.7875 B(  8-Pb, 10-Cl) :   0.5003 B(  8-Pb, 11-Cl) :   0.6029

MP2 TOTAL ENERGY:    -1669.486898584 Eh
Dispersion correction           -0.011679035
FINAL SINGLE POINT ENERGY     -1669.498577618910

DIPOLE MOMENT
-------------
                                X             Y             Z
Electronic contribution:    -20.48865    -100.02170     -74.28781
Nuclear contribution   :     24.70167      99.85676      75.48845
                        -----------------------------------------
Total Dipole Moment    :      4.21302      -0.16494       1.20064
                        -----------------------------------------
Magnitude (a.u.)       :      4.38386
Magnitude (Debye)      :     11.14290

                             ****ORCA TERMINATED NORMALLY****
TOTAL RUN TIME: 0 days 0 hours 19 minutes 45 seconds 481 msec
