                         Program Version 3.0.3 - RELEASE   -
|  1> ! PW6B95 def2-TZVP GCP(DFT/TZ) ECP{def2-TZVP} Grid7 MORead
|  2> %pal nprocs 2 end
|  3> %method
|  4>  RunTyp Gradient
|  5>  end
|  6> %maxcore 2000
|  7> %moinp "previous.gbw"
|  8> *xyz 0 1
|  9> Pb 0.397268 0.343728 0.337556
| 10> Cl 2.975260 0.232485 0.618638
| 11> Cl 0.466342 2.993298 -0.073137
| 12> Cl 0.002648 0.766992 2.860857
| 13> Cs 3.761910 4.432099 3.229957
| 14> *
| 15>
| 16>                          ****END OF INPUT****

CARTESIAN COORDINATES (ANGSTROEM)
---------------------------------
  Pb     0.397268    0.343728    0.337556
  Cl     2.975260    0.232485    0.618638
  Cl     0.466342    2.993298   -0.073137
  Cl     0.002648    0.766992    2.860857
  Cs     3.761910    4.432099    3.229957

 Total Charge           Charge          ....    0
 Multiplicity           Mult            ....    1
 Number of Electrons    NEL             ....   82
 Basis Dimension        Dim             ....  190

ORBITAL ENERGIES
----------------

  NO   OCC          E(Eh)            E(eV)
   0   2.0000    -101.820425     -2770.6746
   1   2.0000    -101.817336     -2770.5906
   2   2.0000    -101.812205     -2770.4510
   3   2.0000      -9.460722      -257.4393
   4   2.0000      -9.457604      -257.3545
   5   2.0000      -9.452088      -257.2044
   6   2.0000      -7.190454      -195.6622
   7   2.0000      -7.187730      -195.5881
   8   2.0000      -7.187546      -195.5831
   9   2.0000      -7.187405      -195.5792
  10   2.0000      -7.184571      -195.5021
  11   2.0000      -7.184392      -195.4972
  12   2.0000      -7.181825      -195.4274
  13   2.0000      -7.179199      -195.3559
  14   2.0000      -7.178924      -195.3485
  15   2.0000      -5.521906      -150.2587
  16   2.0000      -3.345990       -91.0490
  17   2.0000      -3.345461       -91.0346
  18   2.0000      -3.344076       -90.9969
  19   2.0000      -1.154277       -31.4095
  20   2.0000      -0.841746       -22.9051
  21   2.0000      -0.840518       -22.8717
  22   2.0000      -0.835636       -22.7388
  23   2.0000      -0.835299       -22.7296
  24   2.0000      -0.834107       -22.6972
  25   2.0000      -0.736042       -20.0287
  26   2.0000      -0.718937       -19.5633
  27   2.0000      -0.713316       -19.4103
  28   2.0000      -0.623281       -16.9603
  29   2.0000      -0.623130       -16.9562
  30   2.0000      -0.620302       -16.8793
  31   2.0000      -0.460964       -12.5435
  32   2.0000      -0.286758        -7.8031
  33   2.0000      -0.281507        -7.6602
  34   2.0000      -0.272072        -7.4035
  35   2.0000      -0.254441        -6.9237
  36   2.0000      -0.254003        -6.9118
  37   2.0000      -0.240836        -6.5535
  38   2.0000      -0.237487        -6.4623
  39   2.0000      -0.234323        -6.3762
  40   2.0000      -0.228892        -6.2285
  41   0.0000      -0.083812        -2.2806
  42   0.0000      -0.029278        -0.7967
  43   0.0000      -0.029159        -0.7935
  44   0.0000      -0.028994        -0.7890
  45   0.0000      -0.021694        -0.5903

MULLIKEN ATOMIC CHARGES
-----------------------
   0 Pb:    0.776978
   1 Cl:   -0.553762
   2 Cl:   -0.575524
   3 Cl:   -0.544016
   4 Cs:    0.896324
Sum of atomic charges:   -0.0000000

LOEWDIN ATOMIC CHARGES
----------------------
   0 Pb:    0.034435
   1 Cl:   -0.245225
   2 Cl:   -0.295779
   3 Cl:   -0.241497
   4 Cs:    0.748066

  Mayer bond orders larger than 0.1
B(  0-Pb,  1-Cl) :   0.6926 B(  0-Pb,  2-Cl) :   0.6449 B(  0-Pb,  3-Cl) :   0.7174

FINAL SINGLE POINT ENERGY     -1595.032897740784

DIPOLE MOMENT
-------------
                                X             Y             Z
Electronic contribution:     57.18942      64.69096      39.79256
Nuclear contribution   :    -53.33690     -60.35697     -36.78531
                        -----------------------------------------
Total Dipole Moment    :      3.85252       4.33399       3.00725
                        -----------------------------------------
Magnitude (a.u.)       :      6.53214
Magnitude (Debye)      :     16.60339

                             ****ORCA TERMINATED NORMALLY****
TOTAL RUN TIME: 0 days 0 hours 12 minutes 4 seconds 972 msec
