                         Program Version 3.0.3 - RELEASE   -
|  1> ! RIJCOSX RI-B2PLYP D3BJ def2-TZVP ECP{def2-TZVP} TIGHTSCF Grid5 FinalGrid6 SlowConv MORead
|  2> %method
|  3>  RunTyp Gradient
|  4>  end
|  5> %maxcore 1000
|  6> %moinp "previous.gbw"
|  7> *xyz 0 1
|  8> C 2.905719 3.576013 2.873338
|  9> N 2.134625 2.614408 2.046990
| 10> H 3.548796 3.021424 3.560517
| 11> H 2.209179 4.197444 3.440826
| 12> H 3.515705 4.204875 2.220874
| 13> H 1.516852 1.975028 2.601630
| 14> H 2.717740 1.973704 1.464858
| 15> H 1.486857 3.059076 1.361735
| 16> Pb 0.108626 0.131547 0.209487
| 17> Cl 2.393401 0.268387 0.089874
| 18> Cl 0.050164 2.735046 -0.108798
| 19> Cl -0.158586 0.320768 2.851419
| 20> *
| 21>
| 22>                          ****END OF INPUT****

CARTESIAN COORDINATES (ANGSTROEM)
---------------------------------
  C      2.905719    3.576013    2.873338
  N      2.134625    2.614408    2.046990
  H      3.548796    3.021424    3.560517
  H      2.209179    4.197444    3.440826
  H      3.515705    4.204875    2.220874
  H      1.516852    1.975028    2.601630
  H      2.717740    1.973704    1.464858
  H      1.486857    3.059076    1.361735
  Pb     0.108626    0.131547    0.209487
  Cl     2.393401    0.268387    0.089874
  Cl     0.050164    2.735046   -0.108798
  Cl    -0.158586    0.320768    2.851419

 Total Charge           Charge          ....    0
 Multiplicity           Mult            ....    1
 Number of Electrons    NEL             ....   92
 Basis Dimension        Dim             ....  259

ORBITAL ENERGIES
----------------

  NO   OCC          E(Eh)            E(eV)
   0   2.0000    -102.876951     -2799.4241
   1   2.0000    -102.843960     -2798.5264
   2   2.0000    -102.837958     -2798.3631
   3   2.0000     -14.964378      -407.2014
   4   2.0000     -10.710908      -291.4586
   5   2.0000      -9.887531      -269.0534
   6   2.0000      -9.851588      -268.0753
   7   2.0000      -9.844411      -267.8801
   8   2.0000      -7.524751      -204.7589
   9   2.0000      -7.522486      -204.6972
  10   2.0000      -7.522192      -204.6892
  11   2.0000      -7.488646      -203.7764
  12   2.0000      -7.487124      -203.7350
  13   2.0000      -7.486602      -203.7208
  14   2.0000      -7.481517      -203.5824
  15   2.0000      -7.479937      -203.5394
  16   2.0000      -7.479574      -203.5296
  17   2.0000      -5.791211      -157.5869
  18   2.0000      -3.562903       -96.9515
  19   2.0000      -3.562308       -96.9353
  20   2.0000      -3.560697       -96.8915
  21   2.0000      -1.140262       -31.0281
  22   2.0000      -0.988977       -26.9114
  23   2.0000      -0.959548       -26.1106
  24   2.0000      -0.952016       -25.9057
  25   2.0000      -0.951896       -25.9024
  26   2.0000      -0.950482       -25.8639
  27   2.0000      -0.900584       -24.5061
  28   2.0000      -0.865225       -23.5440
  29   2.0000      -0.855535       -23.2803
  30   2.0000      -0.849186       -23.1075
  31   2.0000      -0.668737       -18.1973
  32   2.0000      -0.666048       -18.1241
  33   2.0000      -0.601489       -16.3674
  34   2.0000      -0.559216       -15.2170
  35   2.0000      -0.522036       -14.2053
  36   2.0000      -0.521212       -14.1829
  37   2.0000      -0.399171       -10.8620
  38   2.0000      -0.395356       -10.7582
  39   2.0000      -0.386485       -10.5168
  40   2.0000      -0.354819        -9.6551
  41   2.0000      -0.349064        -9.4985
  42   2.0000      -0.335707        -9.1351
  43   2.0000      -0.333653        -9.0792
  44   2.0000      -0.325607        -8.8602
  45   2.0000      -0.298203        -8.1145
  46   0.0000       0.013444         0.3658
  47   0.0000       0.014030         0.3818
  48   0.0000       0.034610         0.9418
  49   0.0000       0.045007         1.2247
  50   0.0000       0.086224         2.3463

Dispersion correction            ...

MULLIKEN ATOMIC CHARGES
-----------------------
   0 C :   -0.275802
   1 N :   -0.294373
   2 H :    0.161437
   3 H :    0.166672
   4 H :    0.161711
   5 H :    0.277360
   6 H :    0.283054
   7 H :    0.281475
   8 Pb:    0.787408
   9 Cl:   -0.467268
  10 Cl:   -0.538956
  11 Cl:   -0.542716
Sum of atomic charges:   -0.0000000

LOEWDIN ATOMIC CHARGES
----------------------
   0 C :   -0.287927
   1 N :    0.082106
   2 H :    0.126917
   3 H :    0.129441
   4 H :    0.127053
   5 H :    0.176967
   6 H :    0.168990
   7 H :    0.151982
   8 Pb:   -0.126597
   9 Cl:   -0.022878
  10 Cl:   -0.239219
  11 Cl:   -0.286835

  Mayer bond orders larger than 0.1
B(  0-C ,  1-N ) :   0.8918 B(  0-C ,  2-H ) :   0.9522 B(  0-C ,  3-H ) :   0.9512
B(  0-C ,  4-H ) :   0.9515 B(  1-N ,  5-H ) :   0.8136 B(  1-N ,  6-H ) :   0.8307
B(  1-N ,  7-H ) :   0.7907 B(  5-H , 11-Cl) :   0.1606 B(  6-H ,  9-Cl) :   0.1028
B(  7-H , 10-Cl) :   0.1789 B(  8-Pb,  9-Cl) :   0.7563 B(  8-Pb, 10-Cl) :   0.5811
B(  8-Pb, 11-Cl) :   0.6086

MP2 TOTAL ENERGY:    -1669.611518986 Eh
Dispersion correction           -0.013765217
FINAL SINGLE POINT ENERGY     -1669.625284202892

DIPOLE MOMENT
-------------
                                X             Y             Z
Electronic contribution:    -73.46750     -98.86264     -74.90636
Nuclear contribution   :     75.17232      99.85676      75.48845
                        -----------------------------------------
Total Dipole Moment    :      1.70481       0.99412       0.58209
                        -----------------------------------------
Magnitude (a.u.)       :      2.05755
Magnitude (Debye)      :      5.22987

                             ****ORCA TERMINATED NORMALLY****
TOTAL RUN TIME: 0 days 0 hours 16 minutes 34 seconds 116 msec
