                         Program Version 3.0.3 - RELEASE   -
|  1> ! RIJCOSX RI-B2PLYP D3BJ def2-TZVP ECP{def2-TZVP} TIGHTSCF Grid5 FinalGrid6 MORead
|  2> %method
|  3>  RunTyp Gradient
|  4>  end
|  5> %maxcore 1000
|  6> %moinp "previous.gbw"
|  7> *xyz 0 1
|  8> C 2.891451 3.575826 2.778059
|  9> N 2.089424 2.555032 2.059582
| 10> H 3.558472 3.076137 3.484362
| 11> H 2.218727 4.247132 3.316750
| 12> H 3.479382 4.144646 2.054078
| 13> H 1.492676 1.958835 2.673590
| 14> H 2.651801 1.866309 1.511973
| 15> H 1.418732 2.942131 1.359080
| 16> Pb 0.105475 -0.001452 0.235244
| 17> Cl 2.691034 0.146750 0.209249
| 18> Cl -0.077108 2.577042 -0.115474
| 19> Cl 0.044918 0.345459 2.828291
| 20> Cl -2.501381 -0.121730 0.251960
| 21> Cl 0.156121 -0.328451 -2.354371
| 22> Cl 0.282234 -2.602038 0.588758
| 23> N -1.944119 -2.595072 -1.633806
| 24> C -2.725500 -3.643046 -2.335777
| 25> H -2.519034 -1.905375 -1.102173
| 26> H -1.352579 -2.002501 -2.255638
| 27> H -3.308461 -4.206070 -1.603344
| 28> H -2.038395 -4.314606 -2.855607
| 29> H -3.396098 -3.169682 -3.056568
| 30> H -1.270867 -2.959590 -0.921865
| 31> *
| 32>
| 33>                          ****END OF INPUT****

CARTESIAN COORDINATES (ANGSTROEM)
---------------------------------
  C      2.891451    3.575826    2.778059
  N      2.089424    2.555032    2.059582
  H      3.558472    3.076137    3.484362
  H      2.218727    4.247132    3.316750
  H      3.479382    4.144646    2.054078
  H      1.492676    1.958835    2.673590
  H      2.651801    1.866309    1.511973
  H      1.418732    2.942131    1.359080
  Pb     0.105475   -0.001452    0.235244
  Cl     2.691034    0.146750    0.209249
  Cl    -0.077108    2.577042   -0.115474
  Cl     0.044918    0.345459    2.828291
  Cl    -2.501381   -0.121730    0.251960
  Cl     0.156121   -0.328451   -2.354371
  Cl     0.282234   -2.602038    0.588758
  N     -1.944119   -2.595072   -1.633806
  C     -2.725500   -3.643046   -2.335777
  H     -2.519034   -1.905375   -1.102173
  H     -1.352579   -2.002501   -2.255638
  H     -3.308461   -4.206070   -1.603344
  H     -2.038395   -4.314606   -2.855607
  H     -3.396098   -3.169682   -3.056568
  H     -1.270867   -2.959590   -0.921865

 Total Charge           Charge          ....    0
 Multiplicity           Mult            ....    1
 Number of Electrons    NEL             ....  162
 Basis Dimension        Dim             ....  468

ORBITAL ENERGIES
----------------

  NO   OCC          E(Eh)            E(eV)
   0   2.0000    -102.867436     -2799.1652
   1   2.0000    -102.864823     -2799.0941
   2   2.0000    -102.863998     -2799.0717
   3   2.0000    -102.863815     -2799.0667
   4   2.0000    -102.863722     -2799.0642
   5   2.0000    -102.863456     -2799.0569
   6   2.0000     -14.964301      -407.1993
   7   2.0000     -14.954113      -406.9221
   8   2.0000     -10.710737      -291.4540
   9   2.0000     -10.705433      -291.3096
  10   2.0000      -9.873937      -268.6835
  11   2.0000      -9.871040      -268.6046
  12   2.0000      -9.870351      -268.5859
  13   2.0000      -9.870302      -268.5846
  14   2.0000      -9.870042      -268.5775
  15   2.0000      -9.869675      -268.5675
  16   2.0000      -7.511939      -204.4102
  17   2.0000      -7.509072      -204.3322
  18   2.0000      -7.508930      -204.3284
  19   2.0000      -7.508433      -204.3148
  20   2.0000      -7.508310      -204.3115
  21   2.0000      -7.508206      -204.3087
  22   2.0000      -7.508046      -204.3043
  23   2.0000      -7.507603      -204.2923
  24   2.0000      -7.506029      -204.2494
  25   2.0000      -7.505572      -204.2370
  26   2.0000      -7.505383      -204.2319
  27   2.0000      -7.505354      -204.2311
  28   2.0000      -7.505043      -204.2226
  29   2.0000      -7.504884      -204.2183
  30   2.0000      -7.504829      -204.2168
  31   2.0000      -7.504747      -204.2145
  32   2.0000      -7.504587      -204.2102
  33   2.0000      -7.504229      -204.2004
  34   2.0000      -5.834574      -158.7668
  35   2.0000      -3.607600       -98.1678
  36   2.0000      -3.606795       -98.1459
  37   2.0000      -3.606657       -98.1421
  38   2.0000      -1.139822       -31.0161
  39   2.0000      -1.132883       -30.8273
  40   2.0000      -1.008995       -27.4561
  41   2.0000      -1.008141       -27.4329
  42   2.0000      -0.993861       -27.0443
  43   2.0000      -0.992546       -27.0085
  44   2.0000      -0.992322       -27.0025
  45   2.0000      -0.903078       -24.5740
  46   2.0000      -0.883801       -24.0494
  47   2.0000      -0.881074       -23.9752
  48   2.0000      -0.879251       -23.9256
  49   2.0000      -0.861842       -23.4519
  50   2.0000      -0.860957       -23.4278
  51   2.0000      -0.859057       -23.3761
  52   2.0000      -0.853078       -23.2134
  53   2.0000      -0.666796       -18.1444
  54   2.0000      -0.666091       -18.1253
  55   2.0000      -0.660142       -17.9634
  56   2.0000      -0.659974       -17.9588
  57   2.0000      -0.601388       -16.3646
  58   2.0000      -0.595671       -16.2090
  59   2.0000      -0.572417       -15.5763
  60   2.0000      -0.521131       -14.1807
  61   2.0000      -0.521064       -14.1789
  62   2.0000      -0.516377       -14.0513
  63   2.0000      -0.516290       -14.0490
  64   2.0000      -0.412214       -11.2169
  65   2.0000      -0.410719       -11.1762
  66   2.0000      -0.410021       -11.1572
  67   2.0000      -0.374325       -10.1859
  68   2.0000      -0.369164       -10.0455
  69   2.0000      -0.368427       -10.0254
  70   2.0000      -0.352614        -9.5951
  71   2.0000      -0.352046        -9.5796
  72   2.0000      -0.350837        -9.5468
  73   2.0000      -0.346946        -9.4409
  74   2.0000      -0.344585        -9.3766
  75   2.0000      -0.344155        -9.3649
  76   2.0000      -0.338238        -9.2039
  77   2.0000      -0.337731        -9.1901
  78   2.0000      -0.336483        -9.1562
  79   2.0000      -0.335689        -9.1346
  80   2.0000      -0.330900        -9.0042
  81   0.0000      -0.119838        -3.2610
  82   0.0000       0.037037         1.0078
  83   0.0000       0.042132         1.1465
  84   0.0000       0.082274         2.2388
  85   0.0000       0.087939         2.3929

Dispersion correction            ...

MULLIKEN ATOMIC CHARGES
-----------------------
   0 C :   -0.278320
   1 N :   -0.282486
   2 H :    0.161790
   3 H :    0.162568
   4 H :    0.162679
   5 H :    0.273859
   6 H :    0.273055
   7 H :    0.272163
   8 Pb:    1.024712
   9 Cl:   -0.413675
  10 Cl:   -0.423200
  11 Cl:   -0.421183
  12 Cl:   -0.420416
  13 Cl:   -0.423503
  14 Cl:   -0.426635
  15 N :   -0.279894
  16 C :   -0.277939
  17 H :    0.275123
  18 H :    0.276116
  19 H :    0.165043
  20 H :    0.164739
  21 H :    0.163512
  22 H :    0.271893
Sum of atomic charges:    0.0000000

LOEWDIN ATOMIC CHARGES
----------------------
   0 C :   -0.289757
   1 N :    0.077177
   2 H :    0.127152
   3 H :    0.127381
   4 H :    0.127390
   5 H :    0.161151
   6 H :    0.160336
   7 H :    0.157740
   8 Pb:   -0.540584
   9 Cl:   -0.114651
  10 Cl:   -0.128077
  11 Cl:   -0.133333
  12 Cl:   -0.133661
  13 Cl:   -0.137608
  14 Cl:   -0.145686
  15 N :    0.085336
  16 C :   -0.286746
  17 H :    0.168011
  18 H :    0.169148
  19 H :    0.128432
  20 H :    0.128372
  21 H :    0.127787
  22 H :    0.164692

  Mayer bond orders larger than 0.1
B(  0-C ,  1-N ) :   0.8933 B(  0-C ,  2-H ) :   0.9525 B(  0-C ,  3-H ) :   0.9521
B(  0-C ,  4-H ) :   0.9519 B(  1-N ,  5-H ) :   0.8089 B(  1-N ,  6-H ) :   0.8082
B(  1-N ,  7-H ) :   0.8046 B(  5-H , 11-Cl) :   0.1590 B(  6-H ,  9-Cl) :   0.1598
B(  7-H , 10-Cl) :   0.1658 B(  8-Pb,  9-Cl) :   0.5995 B(  8-Pb, 10-Cl) :   0.5874
B(  8-Pb, 11-Cl) :   0.5903 B(  8-Pb, 12-Cl) :   0.5937 B(  8-Pb, 13-Cl) :   0.5954
B(  8-Pb, 14-Cl) :   0.5816 B( 12-Cl, 17-H ) :   0.1501 B( 13-Cl, 18-H ) :   0.1472
B( 14-Cl, 22-H ) :   0.1661 B( 15-N , 16-C ) :   0.8923 B( 15-N , 17-H ) :   0.8147
B( 15-N , 18-H ) :   0.8163 B( 15-N , 22-H ) :   0.8073 B( 16-C , 19-H ) :   0.9510
B( 16-C , 20-H ) :   0.9511 B( 16-C , 21-H ) :   0.9516

MP2 TOTAL ENERGY:    -3146.415485936 Eh
Dispersion correction           -0.030476060
FINAL SINGLE POINT ENERGY     -3146.445961995912

DIPOLE MOMENT
-------------
                                X             Y             Z
Electronic contribution:      1.13374       0.39991       0.48186
Nuclear contribution   :     -1.22946      -0.53533      -0.60386
                        -----------------------------------------
Total Dipole Moment    :     -0.09572      -0.13542      -0.12200
                        -----------------------------------------
Magnitude (a.u.)       :      0.20588
Magnitude (Debye)      :      0.52330

                             ****ORCA TERMINATED NORMALLY****
TOTAL RUN TIME: 0 days 0 hours 34 minutes 25 seconds 485 msec
