                         Program Version 3.0.3 - RELEASE   -
|  1> ! PW6B95 def2-TZVP GCP(DFT/TZ) ECP{def2-TZVP} Grid7 MORead
|  2> %pal nprocs 2 end
|  3> %method
|  4>  RunTyp Gradient
|  5>  end
|  6> %maxcore 2000
|  7> %moinp "previous.gbw"
|  8> *xyz 0 1
|  9> Pb 0.227327 0.584203 0.337280
| 10> Cl 2.573714 -0.169516 -0.196501
| 11> Cl 0.881037 3.048208 0.671199
| 12> Cl 0.604609 0.094810 2.941054
| 13> Cs 3.412498 4.131419 3.021702
| 14> *
| 15>
| 16>                          ****END OF INPUT****

CARTESIAN COORDINATES (ANGSTROEM)
---------------------------------
  Pb     0.227327    0.584203    0.337280
  Cl     2.573714   -0.169516   -0.196501
  Cl     0.881037    3.048208    0.671199
  Cl     0.604609    0.094810    2.941054
  Cs     3.412498    4.131419    3.021702

 Total Charge           Charge          ....    0
 Multiplicity           Mult            ....    1
 Number of Electrons    NEL             ....   82
 Basis Dimension        Dim             ....  190

ORBITAL ENERGIES
----------------

  NO   OCC          E(Eh)            E(eV)
   0   2.0000    -101.848974     -2771.4515
   1   2.0000    -101.827268     -2770.8608
   2   2.0000    -101.815402     -2770.5379
   3   2.0000      -9.489914      -258.2337
   4   2.0000      -9.467884      -257.6342
   5   2.0000      -9.455241      -257.2902
   6   2.0000      -7.219423      -196.4505
   7   2.0000      -7.217028      -196.3853
   8   2.0000      -7.216769      -196.3783
   9   2.0000      -7.197733      -195.8603
  10   2.0000      -7.194743      -195.7789
  11   2.0000      -7.194611      -195.7753
  12   2.0000      -7.185044      -195.5150
  13   2.0000      -7.182316      -195.4408
  14   2.0000      -7.182034      -195.4331
  15   2.0000      -5.529123      -150.4551
  16   2.0000      -3.353658       -91.2577
  17   2.0000      -3.352662       -91.2306
  18   2.0000      -3.351056       -91.1869
  19   2.0000      -1.133294       -30.8385
  20   2.0000      -0.852469       -23.1969
  21   2.0000      -0.848563       -23.0906
  22   2.0000      -0.843704       -22.9584
  23   2.0000      -0.842875       -22.9358
  24   2.0000      -0.841402       -22.8957
  25   2.0000      -0.761501       -20.7215
  26   2.0000      -0.734322       -19.9819
  27   2.0000      -0.717486       -19.5238
  28   2.0000      -0.603550       -16.4234
  29   2.0000      -0.602994       -16.4083
  30   2.0000      -0.598640       -16.2898
  31   2.0000      -0.472576       -12.8594
  32   2.0000      -0.311490        -8.4761
  33   2.0000      -0.297003        -8.0819
  34   2.0000      -0.294257        -8.0071
  35   2.0000      -0.274088        -7.4583
  36   2.0000      -0.266702        -7.2573
  37   2.0000      -0.256470        -6.9789
  38   2.0000      -0.244784        -6.6609
  39   2.0000      -0.239841        -6.5264
  40   2.0000      -0.235828        -6.4172
  41   0.0000      -0.071801        -1.9538
  42   0.0000      -0.021577        -0.5871
  43   0.0000      -0.021377        -0.5817
  44   0.0000      -0.020023        -0.5449
  45   0.0000      -0.010233        -0.2785

MULLIKEN ATOMIC CHARGES
-----------------------
   0 Pb:    0.781348
   1 Cl:   -0.508614
   2 Cl:   -0.573743
   3 Cl:   -0.558421
   4 Cs:    0.859430
Sum of atomic charges:   -0.0000000

LOEWDIN ATOMIC CHARGES
----------------------
   0 Pb:    0.019397
   1 Cl:   -0.188175
   2 Cl:   -0.174376
   3 Cl:   -0.284247
   4 Cs:    0.627401

  Mayer bond orders larger than 0.1
B(  0-Pb,  1-Cl) :   0.7880 B(  0-Pb,  2-Cl) :   0.5701 B(  0-Pb,  3-Cl) :   0.6835
B(  2-Cl,  4-Cs) :   0.1658

FINAL SINGLE POINT ENERGY     -1595.049704421662

DIPOLE MOMENT
-------------
                                X             Y             Z
Electronic contribution:     28.34914      83.76983      32.69675
Nuclear contribution   :    -25.81390     -79.09943     -30.52617
                        -----------------------------------------
Total Dipole Moment    :      2.53524       4.67040       2.17057
                        -----------------------------------------
Magnitude (a.u.)       :      5.74034
Magnitude (Debye)      :     14.59078

                             ****ORCA TERMINATED NORMALLY****
TOTAL RUN TIME: 0 days 0 hours 12 minutes 32 seconds 599 msec
