                         Program Version 3.0.3 - RELEASE   -
|  1> ! PW6B95 def2-TZVP GCP(DFT/TZ) ECP{def2-TZVP} Grid7 MORead
|  2> %pal nprocs 2 end
|  3> %method
|  4>  RunTyp Gradient
|  5>  end
|  6> %maxcore 2000
|  7> %moinp "previous.gbw"
|  8> *xyz 0 1
|  9> Pb 0.231077 0.335559 0.515221
| 10> Cl 2.496834 0.571366 -0.674142
| 11> Cl -0.126271 2.922798 0.489395
| 12> Cl 1.450883 0.498173 2.807505
| 13> Cs 2.854131 3.411763 2.548635
| 14> *
| 15>
| 16>                          ****END OF INPUT****

CARTESIAN COORDINATES (ANGSTROEM)
---------------------------------
  Pb     0.231077    0.335559    0.515221
  Cl     2.496834    0.571366   -0.674142
  Cl    -0.126271    2.922798    0.489395
  Cl     1.450883    0.498173    2.807505
  Cs     2.854131    3.411763    2.548635

 Total Charge           Charge          ....    0
 Multiplicity           Mult            ....    1
 Number of Electrons    NEL             ....   82
 Basis Dimension        Dim             ....  190

ORBITAL ENERGIES
----------------

  NO   OCC          E(Eh)            E(eV)
   0   2.0000    -101.860541     -2771.7662
   1   2.0000    -101.852173     -2771.5385
   2   2.0000    -101.844707     -2771.3354
   3   2.0000      -9.501626      -258.5524
   4   2.0000      -9.492552      -258.3055
   5   2.0000      -9.484958      -258.0988
   6   2.0000      -7.231090      -196.7680
   7   2.0000      -7.228769      -196.7048
   8   2.0000      -7.228432      -196.6956
   9   2.0000      -7.222149      -196.5247
  10   2.0000      -7.219733      -196.4589
  11   2.0000      -7.219325      -196.4478
  12   2.0000      -7.214791      -196.3244
  13   2.0000      -7.211950      -196.2471
  14   2.0000      -7.211665      -196.2394
  15   2.0000      -5.550890      -151.0474
  16   2.0000      -3.375243       -91.8450
  17   2.0000      -3.374546       -91.8261
  18   2.0000      -3.372863       -91.7803
  19   2.0000      -1.096117       -29.8269
  20   2.0000      -0.872329       -23.7373
  21   2.0000      -0.870802       -23.6957
  22   2.0000      -0.865393       -23.5486
  23   2.0000      -0.864508       -23.5245
  24   2.0000      -0.863281       -23.4911
  25   2.0000      -0.778045       -21.1717
  26   2.0000      -0.757319       -20.6077
  27   2.0000      -0.746812       -20.3218
  28   2.0000      -0.567559       -15.4441
  29   2.0000      -0.566179       -15.4065
  30   2.0000      -0.563673       -15.3383
  31   2.0000      -0.493273       -13.4226
  32   2.0000      -0.325069        -8.8456
  33   2.0000      -0.318500        -8.6668
  34   2.0000      -0.312240        -8.4965
  35   2.0000      -0.295150        -8.0314
  36   2.0000      -0.291657        -7.9364
  37   2.0000      -0.279635        -7.6093
  38   2.0000      -0.270635        -7.3643
  39   2.0000      -0.267481        -7.2785
  40   2.0000      -0.260921        -7.1000
  41   0.0000      -0.049011        -1.3337
  42   0.0000      -0.016571        -0.4509
  43   0.0000      -0.013972        -0.3802
  44   0.0000      -0.007552        -0.2055
  45   0.0000      -0.006037        -0.1643

MULLIKEN ATOMIC CHARGES
-----------------------
   0 Pb:    0.779253
   1 Cl:   -0.500649
   2 Cl:   -0.530622
   3 Cl:   -0.548701
   4 Cs:    0.800719
Sum of atomic charges:   -0.0000000

LOEWDIN ATOMIC CHARGES
----------------------
   0 Pb:    0.091449
   1 Cl:   -0.180549
   2 Cl:   -0.176907
   3 Cl:   -0.145025
   4 Cs:    0.411032

  Mayer bond orders larger than 0.1
B(  0-Pb,  1-Cl) :   0.7605 B(  0-Pb,  2-Cl) :   0.6597 B(  0-Pb,  3-Cl) :   0.5967
B(  2-Cl,  4-Cs) :   0.1360 B(  3-Cl,  4-Cs) :   0.1715

FINAL SINGLE POINT ENERGY     -1595.077125206700

DIPOLE MOMENT
-------------
                                X             Y             Z
Electronic contribution:     15.77717      32.46447      39.92123
Nuclear contribution   :    -14.38309     -30.40472     -37.86632
                        -----------------------------------------
Total Dipole Moment    :      1.39408       2.05975       2.05490
                        -----------------------------------------
Magnitude (a.u.)       :      3.22625
Magnitude (Debye)      :      8.20047

                             ****ORCA TERMINATED NORMALLY****
TOTAL RUN TIME: 0 days 0 hours 12 minutes 45 seconds 270 msec
