                         Program Version 3.0.3 - RELEASE   -
|  1> ! PW6B95 def2-TZVP GCP(DFT/TZ) ECP{def2-TZVP} Grid7 MORead
|  2> %pal nprocs 2 end
|  3> %method
|  4>  RunTyp Gradient
|  5>  end
|  6> %maxcore 2000
|  7> %moinp "previous.gbw"
|  8> *xyz -1 1
|  9> Pb 1.087774 1.447061 0.632062
| 10> Cl 2.701021 -0.298190 -0.173375
| 11> Cl 0.751194 0.546221 3.159753
| 12> Cl -1.187137 0.546702 -0.188795
| 13> *
| 14>
| 15>                          ****END OF INPUT****

CARTESIAN COORDINATES (ANGSTROEM)
---------------------------------
  Pb     1.087774    1.447061    0.632062
  Cl     2.701021   -0.298190   -0.173375
  Cl     0.751194    0.546221    3.159753
  Cl    -1.187137    0.546702   -0.188795

 Total Charge           Charge          ....   -1
 Multiplicity           Mult            ....    1
 Number of Electrons    NEL             ....   74
 Basis Dimension        Dim             ....  161

ORBITAL ENERGIES
----------------

  NO   OCC          E(Eh)            E(eV)
   0   2.0000    -101.727262     -2768.1395
   1   2.0000    -101.717873     -2767.8840
   2   2.0000    -101.704118     -2767.5098
   3   2.0000      -9.368194      -254.9215
   4   2.0000      -9.358312      -254.6526
   5   2.0000      -9.343939      -254.2615
   6   2.0000      -7.097842      -193.1421
   7   2.0000      -7.095079      -193.0669
   8   2.0000      -7.095040      -193.0659
   9   2.0000      -7.088026      -192.8750
  10   2.0000      -7.085221      -192.7987
  11   2.0000      -7.085201      -192.7981
  12   2.0000      -7.073703      -192.4852
  13   2.0000      -7.070934      -192.4099
  14   2.0000      -7.070867      -192.4081
  15   2.0000      -5.418345      -147.4407
  16   2.0000      -3.242290       -88.2272
  17   2.0000      -3.241400       -88.2030
  18   2.0000      -3.241314       -88.2006
  19   2.0000      -0.741131       -20.1672
  20   2.0000      -0.737450       -20.0670
  21   2.0000      -0.732259       -19.9258
  22   2.0000      -0.732016       -19.9192
  23   2.0000      -0.731846       -19.9145
  24   2.0000      -0.640637       -17.4326
  25   2.0000      -0.622665       -16.9436
  26   2.0000      -0.607105       -16.5202
  27   2.0000      -0.361294        -9.8313
  28   2.0000      -0.195182        -5.3112
  29   2.0000      -0.182108        -4.9554
  30   2.0000      -0.172210        -4.6861
  31   2.0000      -0.156923        -4.2701
  32   2.0000      -0.153205        -4.1689
  33   2.0000      -0.148523        -4.0415
  34   2.0000      -0.135389        -3.6841
  35   2.0000      -0.132405        -3.6029
  36   2.0000      -0.118301        -3.2191
  37   0.0000       0.108825         2.9613
  38   0.0000       0.115304         3.1376
  39   0.0000       0.129375         3.5205
  40   0.0000       0.229761         6.2521
  41   0.0000       0.237116         6.4522

MULLIKEN ATOMIC CHARGES
-----------------------
   0 Pb:    0.729473
   1 Cl:   -0.553970
   2 Cl:   -0.603877
   3 Cl:   -0.571626
Sum of atomic charges:   -1.0000000

LOEWDIN ATOMIC CHARGES
----------------------
   0 Pb:   -0.116288
   1 Cl:   -0.235557
   2 Cl:   -0.363905
   3 Cl:   -0.284250

  Mayer bond orders larger than 0.1
B(  0-Pb,  1-Cl) :   0.7476 B(  0-Pb,  2-Cl) :   0.6685 B(  0-Pb,  3-Cl) :   0.7193

FINAL SINGLE POINT ENERGY     -1574.931376388954

DIPOLE MOMENT
-------------
                                X             Y             Z
Electronic contribution:     17.25180      60.82206     -15.75526
Nuclear contribution   :    -16.49881     -58.61512      14.89813
                        -----------------------------------------
Total Dipole Moment    :      0.75300       2.20695      -0.85712
                        -----------------------------------------
Magnitude (a.u.)       :      2.48441
Magnitude (Debye)      :      6.31486

                             ****ORCA TERMINATED NORMALLY****
TOTAL RUN TIME: 0 days 0 hours 8 minutes 42 seconds 166 msec
