                         Program Version 3.0.3 - RELEASE   -
|  1> ! PW6B95 def2-TZVP GCP(DFT/TZ) ECP{def2-TZVP} Grid7 MORead
|  2> %pal nprocs 2 end
|  3> %method
|  4>  RunTyp Gradient
|  5>  end
|  6> %maxcore 2000
|  7> %moinp "previous.gbw"
|  8> *xyz 0 1
|  9> Pb 0.357003 0.416912 0.305517
| 10> Cl 2.735032 1.048787 -0.402965
| 11> Cl -0.251637 2.920221 1.008967
| 12> Cl 1.090506 -0.176882 2.859263
| 13> Cs 4.024499 4.760928 3.478723
| 14> *
| 15>
| 16>                          ****END OF INPUT****

CARTESIAN COORDINATES (ANGSTROEM)
---------------------------------
  Pb     0.357003    0.416912    0.305517
  Cl     2.735032    1.048787   -0.402965
  Cl    -0.251637    2.920221    1.008967
  Cl     1.090506   -0.176882    2.859263
  Cs     4.024499    4.760928    3.478723

 Total Charge           Charge          ....    0
 Multiplicity           Mult            ....    1
 Number of Electrons    NEL             ....   82
 Basis Dimension        Dim             ....  190

ORBITAL ENERGIES
----------------

  NO   OCC          E(Eh)            E(eV)
   0   2.0000    -101.818076     -2770.6107
   1   2.0000    -101.808723     -2770.3562
   2   2.0000    -101.798841     -2770.0873
   3   2.0000      -9.458540      -257.3799
   4   2.0000      -9.448621      -257.1101
   5   2.0000      -9.438455      -256.8334
   6   2.0000      -7.188301      -195.6036
   7   2.0000      -7.185470      -195.5266
   8   2.0000      -7.185355      -195.5235
   9   2.0000      -7.178377      -195.3336
  10   2.0000      -7.175685      -195.2603
  11   2.0000      -7.175476      -195.2546
  12   2.0000      -7.168283      -195.0589
  13   2.0000      -7.165483      -194.9827
  14   2.0000      -7.165329      -194.9785
  15   2.0000      -5.518461      -150.1650
  16   2.0000      -3.342388       -90.9510
  17   2.0000      -3.341935       -90.9387
  18   2.0000      -3.340779       -90.9072
  19   2.0000      -1.166464       -31.7411
  20   2.0000      -0.838104       -22.8060
  21   2.0000      -0.835476       -22.7345
  22   2.0000      -0.831803       -22.6345
  23   2.0000      -0.831622       -22.6296
  24   2.0000      -0.830644       -22.6030
  25   2.0000      -0.729604       -19.8535
  26   2.0000      -0.711590       -19.3633
  27   2.0000      -0.700494       -19.0614
  28   2.0000      -0.635195       -17.2845
  29   2.0000      -0.635116       -17.2824
  30   2.0000      -0.632864       -17.2211
  31   2.0000      -0.455245       -12.3878
  32   2.0000      -0.280473        -7.6321
  33   2.0000      -0.271690        -7.3930
  34   2.0000      -0.264050        -7.1852
  35   2.0000      -0.247506        -6.7350
  36   2.0000      -0.244082        -6.6418
  37   2.0000      -0.234585        -6.3834
  38   2.0000      -0.226698        -6.1688
  39   2.0000      -0.223863        -6.0916
  40   2.0000      -0.220832        -6.0091
  41   0.0000      -0.092256        -2.5104
  42   0.0000      -0.036055        -0.9811
  43   0.0000      -0.035255        -0.9593
  44   0.0000      -0.035232        -0.9587
  45   0.0000      -0.030621        -0.8332

MULLIKEN ATOMIC CHARGES
-----------------------
   0 Pb:    0.782808
   1 Cl:   -0.544992
   2 Cl:   -0.577159
   3 Cl:   -0.580071
   4 Cs:    0.919414
Sum of atomic charges:   -0.0000000

LOEWDIN ATOMIC CHARGES
----------------------
   0 Pb:    0.052773
   1 Cl:   -0.231479
   2 Cl:   -0.299640
   3 Cl:   -0.332544
   4 Cs:    0.810890

  Mayer bond orders larger than 0.1
B(  0-Pb,  1-Cl) :   0.7248 B(  0-Pb,  2-Cl) :   0.6577 B(  0-Pb,  3-Cl) :   0.6686

FINAL SINGLE POINT ENERGY     -1595.020114905634

DIPOLE MOMENT
-------------
                                X             Y             Z
Electronic contribution:     61.57196      81.52604      45.03575
Nuclear contribution   :    -57.19233     -76.13014     -41.88996
                        -----------------------------------------
Total Dipole Moment    :      4.37963       5.39591       3.14580
                        -----------------------------------------
Magnitude (a.u.)       :      7.62844
Magnitude (Debye)      :     19.38994

                             ****ORCA TERMINATED NORMALLY****
TOTAL RUN TIME: 0 days 0 hours 11 minutes 59 seconds 152 msec
