                         Program Version 3.0.3 - RELEASE   -
|  1> ! RIJCOSX RI-B2PLYP D3BJ def2-TZVP ECP{def2-TZVP} TIGHTSCF Grid5 FinalGrid6 SlowConv MORead
|  2> %method
|  3>  RunTyp Gradient
|  4>  end
|  5> %maxcore 1000
|  6> %moinp "previous.gbw"
|  7> *xyz 0 1
|  8> C -0.394281 0.276013 -0.426662
|  9> N -1.165380 -0.685592 -1.253010
| 10> H 0.248796 -0.278576 0.260517
| 11> H -1.090820 0.897444 0.140826
| 12> H 0.215705 0.904875 -1.079130
| 13> H -1.783150 -1.324970 -0.698370
| 14> H -0.582260 -1.326300 -1.835140
| 15> H -1.813140 -0.240924 -1.938260
| 16> Pb -2.756200 -3.818700 -2.717490
| 17> Cl -1.221100 -3.252780 -4.704020
| 18> Cl -2.590660 1.367590 -2.748500
| 19> Cl -4.690390 -3.454960 -1.059510
| 20> *
| 21>
| 22>                          ****END OF INPUT****

CARTESIAN COORDINATES (ANGSTROEM)
---------------------------------
  C     -0.394281    0.276013   -0.426662
  N     -1.165380   -0.685592   -1.253010
  H      0.248796   -0.278576    0.260517
  H     -1.090820    0.897444    0.140826
  H      0.215705    0.904875   -1.079130
  H     -1.783150   -1.324970   -0.698370
  H     -0.582260   -1.326300   -1.835140
  H     -1.813140   -0.240924   -1.938260
  Pb    -2.756200   -3.818700   -2.717490
  Cl    -1.221100   -3.252780   -4.704020
  Cl    -2.590660    1.367590   -2.748500
  Cl    -4.690390   -3.454960   -1.059510

 Total Charge           Charge          ....    0
 Multiplicity           Mult            ....    1
 Number of Electrons    NEL             ....   92
 Basis Dimension        Dim             ....  259

ORBITAL ENERGIES
----------------

  NO   OCC          E(Eh)            E(eV)
   0   2.0000    -102.882973     -2799.5880
   1   2.0000    -102.882760     -2799.5822
   2   2.0000    -102.759800     -2796.2363
   3   2.0000     -14.990550      -407.9136
   4   2.0000     -10.711459      -291.4736
   5   2.0000      -9.889233      -269.0997
   6   2.0000      -9.888993      -269.0932
   7   2.0000      -9.766001      -265.7464
   8   2.0000      -7.525868      -204.7893
   9   2.0000      -7.525641      -204.7831
  10   2.0000      -7.524857      -204.7618
  11   2.0000      -7.524630      -204.7556
  12   2.0000      -7.524352      -204.7480
  13   2.0000      -7.524092      -204.7409
  14   2.0000      -7.402755      -201.4392
  15   2.0000      -7.401729      -201.4113
  16   2.0000      -7.401710      -201.4108
  17   2.0000      -5.880217      -160.0089
  18   2.0000      -3.654902       -99.4550
  19   2.0000      -3.652594       -99.3921
  20   2.0000      -3.644724       -99.1780
  21   2.0000      -1.159685       -31.5566
  22   2.0000      -1.045402       -28.4468
  23   2.0000      -1.044479       -28.4217
  24   2.0000      -1.041682       -28.3456
  25   2.0000      -1.037042       -28.2194
  26   2.0000      -1.035233       -28.1701
  27   2.0000      -0.896415       -24.3927
  28   2.0000      -0.895190       -24.3594
  29   2.0000      -0.867745       -23.6126
  30   2.0000      -0.780644       -21.2424
  31   2.0000      -0.689554       -18.7637
  32   2.0000      -0.673470       -18.3260
  33   2.0000      -0.614415       -16.7191
  34   2.0000      -0.604442       -16.4477
  35   2.0000      -0.521199       -14.1825
  36   2.0000      -0.521073       -14.1791
  37   2.0000      -0.427491       -11.6326
  38   2.0000      -0.382066       -10.3965
  39   2.0000      -0.380127       -10.3438
  40   2.0000      -0.370116       -10.0714
  41   2.0000      -0.368788       -10.0352
  42   2.0000      -0.325564        -8.8590
  43   2.0000      -0.272432        -7.4133
  44   2.0000      -0.260808        -7.0969
  45   2.0000      -0.260037        -7.0760
  46   0.0000      -0.123240        -3.3535
  47   0.0000      -0.103542        -2.8175
  48   0.0000       0.010484         0.2853
  49   0.0000       0.013284         0.3615
  50   0.0000       0.062085         1.6894

Dispersion correction            ...

MULLIKEN ATOMIC CHARGES
-----------------------
   0 C :   -0.247623
   1 N :   -0.300850
   2 H :    0.138117
   3 H :    0.179004
   4 H :    0.179048
   5 H :    0.266340
   6 H :    0.269489
   7 H :    0.247186
   8 Pb:    0.850105
   9 Cl:   -0.422585
  10 Cl:   -0.731699
  11 Cl:   -0.426533
Sum of atomic charges:   -0.0000000

LOEWDIN ATOMIC CHARGES
----------------------
   0 C :   -0.291403
   1 N :    0.089157
   2 H :    0.117017
   3 H :    0.136178
   4 H :    0.136115
   5 H :    0.194648
   6 H :    0.193750
   7 H :    0.110650
   8 Pb:    0.328454
   9 Cl:   -0.168543
  10 Cl:   -0.674781
  11 Cl:   -0.171241

  Mayer bond orders larger than 0.1
B(  0-C ,  1-N ) :   0.8730 B(  0-C ,  2-H ) :   0.9432 B(  0-C ,  3-H ) :   0.9446
B(  0-C ,  4-H ) :   0.9450 B(  1-N ,  5-H ) :   0.8762 B(  1-N ,  6-H ) :   0.8746
B(  1-N ,  7-H ) :   0.6705 B(  7-H , 10-Cl) :   0.3994 B(  8-Pb,  9-Cl) :   0.9025
B(  8-Pb, 11-Cl) :   0.8993

MP2 TOTAL ENERGY:    -1669.514815621 Eh
Dispersion correction           -0.009918938
FINAL SINGLE POINT ENERGY     -1669.524734558693

DIPOLE MOMENT
-------------
                                X             Y             Z
Electronic contribution:    -33.06105    -161.46187     -29.26977
Nuclear contribution   :     35.22947     158.25511      31.47319
                        -----------------------------------------
Total Dipole Moment    :      2.16842      -3.20676       2.20342
                        -----------------------------------------
Magnitude (a.u.)       :      4.45426
Magnitude (Debye)      :     11.32182

                             ****ORCA TERMINATED NORMALLY****
TOTAL RUN TIME: 0 days 0 hours 14 minutes 57 seconds 486 msec
