                         Program Version 3.0.3 - RELEASE   -
|  1> ! PW6B95 def2-TZVP GCP(DFT/TZ) ECP{def2-TZVP} Grid7 MORead
|  2> %pal nprocs 2 end
|  3> %method
|  4>  RunTyp Gradient
|  5>  end
|  6> %maxcore 2000
|  7> %moinp "previous.gbw"
|  8> *xyz -1 1
|  9> Pb 1.216509 0.848027 1.188103
| 10> Cl 1.770612 3.068755 0.127558
| 11> Cl 0.946297 -0.855508 -0.899552
| 12> Cl -1.214838 1.056417 1.740142
| 13> *
| 14>
| 15>                          ****END OF INPUT****

CARTESIAN COORDINATES (ANGSTROEM)
---------------------------------
  Pb     1.216509    0.848027    1.188103
  Cl     1.770612    3.068755    0.127558
  Cl     0.946297   -0.855508   -0.899552
  Cl    -1.214838    1.056417    1.740142

 Total Charge           Charge          ....   -1
 Multiplicity           Mult            ....    1
 Number of Electrons    NEL             ....   74
 Basis Dimension        Dim             ....  161

ORBITAL ENERGIES
----------------

  NO   OCC          E(Eh)            E(eV)
   0   2.0000    -101.725622     -2768.0949
   1   2.0000    -101.725239     -2768.0845
   2   2.0000    -101.703860     -2767.5027
   3   2.0000      -9.366648      -254.8795
   4   2.0000      -9.366165      -254.8663
   5   2.0000      -9.343751      -254.2564
   6   2.0000      -7.096286      -193.0998
   7   2.0000      -7.095739      -193.0849
   8   2.0000      -7.093552      -193.0254
   9   2.0000      -7.093463      -193.0229
  10   2.0000      -7.093122      -193.0137
  11   2.0000      -7.093020      -193.0109
  12   2.0000      -7.073406      -192.4772
  13   2.0000      -7.070798      -192.4062
  14   2.0000      -7.070723      -192.4042
  15   2.0000      -5.415297      -147.3577
  16   2.0000      -3.239378       -88.1480
  17   2.0000      -3.238475       -88.1234
  18   2.0000      -3.238191       -88.1157
  19   2.0000      -0.739605       -20.1257
  20   2.0000      -0.735878       -20.0243
  21   2.0000      -0.729971       -19.8635
  22   2.0000      -0.729647       -19.8547
  23   2.0000      -0.728909       -19.8346
  24   2.0000      -0.643166       -17.5014
  25   2.0000      -0.627091       -17.0640
  26   2.0000      -0.607620       -16.5342
  27   2.0000      -0.361192        -9.8285
  28   2.0000      -0.198855        -5.4111
  29   2.0000      -0.185537        -5.0487
  30   2.0000      -0.173942        -4.7332
  31   2.0000      -0.159318        -4.3353
  32   2.0000      -0.156627        -4.2620
  33   2.0000      -0.154132        -4.1941
  34   2.0000      -0.137137        -3.7317
  35   2.0000      -0.134490        -3.6597
  36   2.0000      -0.113725        -3.0946
  37   0.0000       0.106047         2.8857
  38   0.0000       0.124991         3.4012
  39   0.0000       0.135222         3.6796
  40   0.0000       0.229161         6.2358
  41   0.0000       0.239937         6.5290

MULLIKEN ATOMIC CHARGES
-----------------------
   0 Pb:    0.732679
   1 Cl:   -0.564779
   2 Cl:   -0.612903
   3 Cl:   -0.554997
Sum of atomic charges:   -1.0000000

LOEWDIN ATOMIC CHARGES
----------------------
   0 Pb:   -0.141582
   1 Cl:   -0.251781
   2 Cl:   -0.373608
   3 Cl:   -0.233029

  Mayer bond orders larger than 0.1
B(  0-Pb,  1-Cl) :   0.7296 B(  0-Pb,  2-Cl) :   0.6540 B(  0-Pb,  3-Cl) :   0.7455

FINAL SINGLE POINT ENERGY     -1574.931072508063

DIPOLE MOMENT
-------------
                                X             Y             Z
Electronic contribution:     36.73786     -12.16107      44.75671
Nuclear contribution   :    -35.49278      11.99231     -42.90890
                        -----------------------------------------
Total Dipole Moment    :      1.24507      -0.16876       1.84780
                        -----------------------------------------
Magnitude (a.u.)       :      2.23452
Magnitude (Debye)      :      5.67969

                             ****ORCA TERMINATED NORMALLY****
TOTAL RUN TIME: 0 days 0 hours 8 minutes 42 seconds 52 msec
