                         Program Version 3.0.3 - RELEASE   -
|  1> ! RIJCOSX RI-B2PLYP D3BJ def2-TZVP ECP{def2-TZVP} TIGHTSCF Grid5 FinalGrid6 SlowConv MORead
|  2> %method
|  3>  RunTyp Gradient
|  4>  end
|  5> %maxcore 1000
|  6> %moinp "previous.gbw"
|  7> *xyz 0 1
|  8> C 2.905719 3.576013 2.873338
|  9> N 2.134625 2.614408 2.046990
| 10> H 3.548796 3.021424 3.560517
| 11> H 2.209179 4.197444 3.440826
| 12> H 3.515705 4.204875 2.220874
| 13> H 1.516852 1.975028 2.601630
| 14> H 2.717740 1.973704 1.464858
| 15> H 1.486857 3.059076 1.361735
| 16> Pb 0.086051 0.131547 0.209487
| 17> Cl 2.902334 0.268387 0.089874
| 18> Cl -0.059902 2.735046 -0.108798
| 19> Cl 0.111729 0.320768 2.851419
| 20> *
| 21>
| 22>                          ****END OF INPUT****

CARTESIAN COORDINATES (ANGSTROEM)
---------------------------------
  C      2.905719    3.576013    2.873338
  N      2.134625    2.614408    2.046990
  H      3.548796    3.021424    3.560517
  H      2.209179    4.197444    3.440826
  H      3.515705    4.204875    2.220874
  H      1.516852    1.975028    2.601630
  H      2.717740    1.973704    1.464858
  H      1.486857    3.059076    1.361735
  Pb     0.086051    0.131547    0.209487
  Cl     2.902334    0.268387    0.089874
  Cl    -0.059902    2.735046   -0.108798
  Cl     0.111729    0.320768    2.851419

 Total Charge           Charge          ....    0
 Multiplicity           Mult            ....    1
 Number of Electrons    NEL             ....   92
 Basis Dimension        Dim             ....  259

ORBITAL ENERGIES
----------------

  NO   OCC          E(Eh)            E(eV)
   0   2.0000    -102.859471     -2798.9485
   1   2.0000    -102.857748     -2798.9016
   2   2.0000    -102.839288     -2798.3993
   3   2.0000     -14.953706      -406.9110
   4   2.0000     -10.704106      -291.2735
   5   2.0000      -9.866434      -268.4793
   6   2.0000      -9.864374      -268.4233
   7   2.0000      -9.845210      -267.9018
   8   2.0000      -7.503633      -204.1842
   9   2.0000      -7.501857      -204.1359
  10   2.0000      -7.501568      -204.1280
  11   2.0000      -7.501461      -204.1251
  12   2.0000      -7.499860      -204.0816
  13   2.0000      -7.499424      -204.0697
  14   2.0000      -7.482343      -203.6049
  15   2.0000      -7.480834      -203.5638
  16   2.0000      -7.480379      -203.5515
  17   2.0000      -5.819617      -158.3598
  18   2.0000      -3.590541       -97.7036
  19   2.0000      -3.589856       -97.6850
  20   2.0000      -3.589084       -97.6639
  21   2.0000      -1.130979       -30.7755
  22   2.0000      -0.984598       -26.7923
  23   2.0000      -0.982013       -26.7219
  24   2.0000      -0.977544       -26.6003
  25   2.0000      -0.977314       -26.5941
  26   2.0000      -0.976585       -26.5742
  27   2.0000      -0.884877       -24.0787
  28   2.0000      -0.868490       -23.6328
  29   2.0000      -0.854928       -23.2638
  30   2.0000      -0.847406       -23.0591
  31   2.0000      -0.658613       -17.9218
  32   2.0000      -0.658186       -17.9101
  33   2.0000      -0.593311       -16.1448
  34   2.0000      -0.559978       -15.2378
  35   2.0000      -0.514820       -14.0090
  36   2.0000      -0.514476       -13.9996
  37   2.0000      -0.382155       -10.3990
  38   2.0000      -0.372235       -10.1290
  39   2.0000      -0.370323       -10.0770
  40   2.0000      -0.353242        -9.6122
  41   2.0000      -0.348128        -9.4730
  42   2.0000      -0.342895        -9.3306
  43   2.0000      -0.332131        -9.0377
  44   2.0000      -0.326151        -8.8750
  45   2.0000      -0.319061        -8.6821
  46   0.0000      -0.018126        -0.4932
  47   0.0000      -0.005810        -0.1581
  48   0.0000      -0.004038        -0.1099
  49   0.0000       0.043620         1.1870
  50   0.0000       0.093841         2.5535

Dispersion correction            ...

MULLIKEN ATOMIC CHARGES
-----------------------
   0 C :   -0.275895
   1 N :   -0.294402
   2 H :    0.162359
   3 H :    0.160473
   4 H :    0.161343
   5 H :    0.281305
   6 H :    0.280540
   7 H :    0.280937
   8 Pb:    0.829690
   9 Cl:   -0.554149
  10 Cl:   -0.516387
  11 Cl:   -0.515815
Sum of atomic charges:   -0.0000000

LOEWDIN ATOMIC CHARGES
----------------------
   0 C :   -0.289441
   1 N :    0.079535
   2 H :    0.127643
   3 H :    0.126751
   4 H :    0.126893
   5 H :    0.163825
   6 H :    0.161439
   7 H :    0.160330
   8 Pb:    0.150238
   9 Cl:   -0.337151
  10 Cl:   -0.227268
  11 Cl:   -0.242795

  Mayer bond orders larger than 0.1
B(  0-C ,  1-N ) :   0.8951 B(  0-C ,  2-H ) :   0.9526 B(  0-C ,  3-H ) :   0.9522
B(  0-C ,  4-H ) :   0.9523 B(  1-N ,  5-H ) :   0.8091 B(  1-N ,  6-H ) :   0.8026
B(  1-N ,  7-H ) :   0.8146 B(  5-H , 11-Cl) :   0.1543 B(  6-H ,  9-Cl) :   0.1683
B(  7-H , 10-Cl) :   0.1396 B(  8-Pb,  9-Cl) :   0.5763 B(  8-Pb, 10-Cl) :   0.6509
B(  8-Pb, 11-Cl) :   0.6483

MP2 TOTAL ENERGY:    -1669.627995242 Eh
Dispersion correction           -0.013409101
FINAL SINGLE POINT ENERGY     -1669.641404343040

DIPOLE MOMENT
-------------
                                X             Y             Z
Electronic contribution:    -85.89304     -98.89656     -74.78471
Nuclear contribution   :     86.15056      99.85676      75.48845
                        -----------------------------------------
Total Dipole Moment    :      0.25752       0.96020       0.70374
                        -----------------------------------------
Magnitude (a.u.)       :      1.21801
Magnitude (Debye)      :      3.09594

                             ****ORCA TERMINATED NORMALLY****
TOTAL RUN TIME: 0 days 0 hours 10 minutes 15 seconds 119 msec
