                         Program Version 3.0.3 - RELEASE   -
|  1> ! RIJCOSX RI-B2PLYP D3BJ def2-TZVP ECP{def2-TZVP} TIGHTSCF Grid5 FinalGrid6 SlowConv MORead
|  2> %method
|  3>  RunTyp Gradient
|  4>  end
|  5> %maxcore 1000
|  6> %moinp "previous.gbw"
|  7> *xyz 0 1
|  8> C -2.121160 0.886986 -0.590359
|  9> N -3.445760 1.105990 -1.090560
| 10> H -3.504960 2.045880 -1.384950
| 11> H -4.196010 0.812442 -0.481895
| 12> H -3.401180 0.572738 -1.978640
| 13> H -1.726460 1.720880 -0.051973
| 14> H -1.560330 0.882414 -1.471240
| 15> H -2.224780 -0.013251 -0.005213
| 16> Pb -2.843620 -2.645810 -2.279160
| 17> Cl -1.551760 -4.674380 -2.868800
| 18> Cl -2.416620 -0.584994 -3.407890
| 19> Cl -4.169900 -2.570710 -0.289631
| 20> *
| 21>
| 22>                          ****END OF INPUT****

CARTESIAN COORDINATES (ANGSTROEM)
---------------------------------
  C     -2.121160    0.886986   -0.590359
  N     -3.445760    1.105990   -1.090560
  H     -3.504960    2.045880   -1.384950
  H     -4.196010    0.812442   -0.481895
  H     -3.401180    0.572738   -1.978640
  H     -1.726460    1.720880   -0.051973
  H     -1.560330    0.882414   -1.471240
  H     -2.224780   -0.013251   -0.005213
  Pb    -2.843620   -2.645810   -2.279160
  Cl    -1.551760   -4.674380   -2.868800
  Cl    -2.416620   -0.584994   -3.407890
  Cl    -4.169900   -2.570710   -0.289631

 Total Charge           Charge          ....    0
 Multiplicity           Mult            ....    1
 Number of Electrons    NEL             ....   92
 Basis Dimension        Dim             ....  259

ORBITAL ENERGIES
----------------

  NO   OCC          E(Eh)            E(eV)
   0   2.0000    -102.861109     -2798.9931
   1   2.0000    -102.835649     -2798.3003
   2   2.0000    -102.799895     -2797.3274
   3   2.0000     -15.015913      -408.6038
   4   2.0000     -10.716941      -291.6228
   5   2.0000      -9.871909      -268.6283
   6   2.0000      -9.845061      -267.8977
   7   2.0000      -9.808037      -266.8903
   8   2.0000      -7.508026      -204.3038
   9   2.0000      -7.507279      -204.2835
  10   2.0000      -7.506908      -204.2733
  11   2.0000      -7.481354      -203.5780
  12   2.0000      -7.480460      -203.5537
  13   2.0000      -7.480165      -203.5456
  14   2.0000      -7.444541      -202.5763
  15   2.0000      -7.443549      -202.5493
  16   2.0000      -7.443167      -202.5389
  17   2.0000      -5.765616      -156.8904
  18   2.0000      -3.539498       -96.3146
  19   2.0000      -3.536192       -96.2247
  20   2.0000      -3.534548       -96.1800
  21   2.0000      -1.219607       -33.1872
  22   2.0000      -0.957239       -26.0478
  23   2.0000      -0.947610       -25.7858
  24   2.0000      -0.937058       -25.4986
  25   2.0000      -0.929939       -25.3049
  26   2.0000      -0.928331       -25.2612
  27   2.0000      -0.897263       -24.4158
  28   2.0000      -0.883959       -24.0537
  29   2.0000      -0.853669       -23.2295
  30   2.0000      -0.819701       -22.3052
  31   2.0000      -0.763473       -20.7752
  32   2.0000      -0.734185       -19.9782
  33   2.0000      -0.631806       -17.1923
  34   2.0000      -0.567171       -15.4335
  35   2.0000      -0.543336       -14.7849
  36   2.0000      -0.533842       -14.5266
  37   2.0000      -0.401449       -10.9240
  38   2.0000      -0.387809       -10.5528
  39   2.0000      -0.374534       -10.1916
  40   2.0000      -0.356972        -9.7137
  41   2.0000      -0.344173        -9.3654
  42   2.0000      -0.337746        -9.1905
  43   2.0000      -0.303225        -8.2512
  44   2.0000      -0.299994        -8.1632
  45   2.0000      -0.212859        -5.7922
  46   0.0000      -0.021741        -0.5916
  47   0.0000      -0.011540        -0.3140
  48   0.0000       0.042834         1.1656
  49   0.0000       0.063853         1.7375
  50   0.0000       0.074048         2.0149

Dispersion correction            ...

MULLIKEN ATOMIC CHARGES
-----------------------
   0 C :   -0.308957
   1 N :   -0.245774
   2 H :    0.276297
   3 H :    0.302763
   4 H :    0.272586
   5 H :    0.161572
   6 H :    0.176088
   7 H :    0.173088
   8 Pb:    0.769857
   9 Cl:   -0.521344
  10 Cl:   -0.518896
  11 Cl:   -0.537281
Sum of atomic charges:   -0.0000000

LOEWDIN ATOMIC CHARGES
----------------------
   0 C :   -0.303249
   1 N :    0.146779
   2 H :    0.191541
   3 H :    0.201188
   4 H :    0.165696
   5 H :    0.119911
   6 H :    0.114864
   7 H :    0.134070
   8 Pb:   -0.264273
   9 Cl:   -0.204580
  10 Cl:   -0.123949
  11 Cl:   -0.177997

  Mayer bond orders larger than 0.1
B(  0-C ,  1-N ) :   0.8631 B(  0-C ,  5-H ) :   0.9583 B(  0-C ,  6-H ) :   0.9370
B(  0-C ,  7-H ) :   0.9368 B(  1-N ,  2-H ) :   0.8927 B(  1-N ,  3-H ) :   0.8615
B(  1-N ,  4-H ) :   0.7632 B(  4-H , 10-Cl) :   0.2379 B(  8-Pb,  9-Cl) :   0.7632
B(  8-Pb, 10-Cl) :   0.4764 B(  8-Pb, 11-Cl) :   0.6598

MP2 TOTAL ENERGY:    -1669.514588735 Eh
Dispersion correction           -0.012718559
FINAL SINGLE POINT ENERGY     -1669.527307293700

DIPOLE MOMENT
-------------
                                X             Y             Z
Electronic contribution:     -7.18143     -68.29788     -30.15620
Nuclear contribution   :      6.33414      73.71627      31.64643
                        -----------------------------------------
Total Dipole Moment    :     -0.84729       5.41839       1.49023
                        -----------------------------------------
Magnitude (a.u.)       :      5.68310
Magnitude (Debye)      :     14.44530

                             ****ORCA TERMINATED NORMALLY****
TOTAL RUN TIME: 0 days 0 hours 22 minutes 38 seconds 322 msec
