                         Program Version 3.0.3 - RELEASE   -
|  1> ! RIJCOSX RI-B2PLYP D3BJ def2-TZVP ECP{def2-TZVP} TIGHTSCF Grid5 FinalGrid6 MORead
|  2> %method
|  3>  RunTyp Gradient
|  4>  end
|  5> %maxcore 1000
|  6> %moinp "previous.gbw"
|  7> *xyz 0 1
|  8> C 2.891451 3.575826 2.778059
|  9> N 2.089424 2.555032 2.059582
| 10> H 3.558472 3.076137 3.484362
| 11> H 2.218727 4.247132 3.316750
| 12> H 3.479382 4.144646 2.054078
| 13> H 1.492676 1.958835 2.673590
| 14> H 2.651801 1.866309 1.511973
| 15> H 1.418732 2.942131 1.359080
| 16> Pb 0.141423 -0.003418 0.258291
| 17> Cl 2.719601 0.149975 0.257360
| 18> Cl -0.041993 2.625659 -0.120464
| 19> Cl 0.046834 0.403520 2.817247
| 20> Cl -2.507903 -0.144634 0.294962
| 21> Cl 0.119221 -0.301066 -2.374403
| 22> Cl 0.244159 -2.560969 0.597325
| 23> N -1.944119 -2.595072 -1.633806
| 24> C -2.725500 -3.643046 -2.335777
| 25> H -2.519034 -1.905375 -1.102173
| 26> H -1.352579 -2.002501 -2.255638
| 27> H -3.308461 -4.206070 -1.603344
| 28> H -2.038395 -4.314606 -2.855607
| 29> H -3.396098 -3.169682 -3.056568
| 30> H -1.270867 -2.959590 -0.921865
| 31> *
| 32>
| 33>                          ****END OF INPUT****

CARTESIAN COORDINATES (ANGSTROEM)
---------------------------------
  C      2.891451    3.575826    2.778059
  N      2.089424    2.555032    2.059582
  H      3.558472    3.076137    3.484362
  H      2.218727    4.247132    3.316750
  H      3.479382    4.144646    2.054078
  H      1.492676    1.958835    2.673590
  H      2.651801    1.866309    1.511973
  H      1.418732    2.942131    1.359080
  Pb     0.141423   -0.003418    0.258291
  Cl     2.719601    0.149975    0.257360
  Cl    -0.041993    2.625659   -0.120464
  Cl     0.046834    0.403520    2.817247
  Cl    -2.507903   -0.144634    0.294962
  Cl     0.119221   -0.301066   -2.374403
  Cl     0.244159   -2.560969    0.597325
  N     -1.944119   -2.595072   -1.633806
  C     -2.725500   -3.643046   -2.335777
  H     -2.519034   -1.905375   -1.102173
  H     -1.352579   -2.002501   -2.255638
  H     -3.308461   -4.206070   -1.603344
  H     -2.038395   -4.314606   -2.855607
  H     -3.396098   -3.169682   -3.056568
  H     -1.270867   -2.959590   -0.921865

 Total Charge           Charge          ....    0
 Multiplicity           Mult            ....    1
 Number of Electrons    NEL             ....  162
 Basis Dimension        Dim             ....  468

ORBITAL ENERGIES
----------------

  NO   OCC          E(Eh)            E(eV)
   0   2.0000    -102.872526     -2799.3037
   1   2.0000    -102.871083     -2799.2645
   2   2.0000    -102.868092     -2799.1831
   3   2.0000    -102.862984     -2799.0441
   4   2.0000    -102.860426     -2798.9745
   5   2.0000    -102.859892     -2798.9600
   6   2.0000     -14.964152      -407.1953
   7   2.0000     -14.949716      -406.8025
   8   2.0000     -10.710794      -291.4555
   9   2.0000     -10.703366      -291.2534
  10   2.0000      -9.879073      -268.8232
  11   2.0000      -9.877593      -268.7830
  12   2.0000      -9.874704      -268.7043
  13   2.0000      -9.868943      -268.5476
  14   2.0000      -9.866746      -268.4878
  15   2.0000      -9.865891      -268.4645
  16   2.0000      -7.517093      -204.5505
  17   2.0000      -7.515589      -204.5096
  18   2.0000      -7.514048      -204.4676
  19   2.0000      -7.513544      -204.4539
  20   2.0000      -7.512674      -204.4303
  21   2.0000      -7.512586      -204.4279
  22   2.0000      -7.512089      -204.4143
  23   2.0000      -7.509700      -204.3493
  24   2.0000      -7.509187      -204.3354
  25   2.0000      -7.506952      -204.2745
  26   2.0000      -7.504624      -204.2112
  27   2.0000      -7.503963      -204.1932
  28   2.0000      -7.503894      -204.1913
  29   2.0000      -7.503515      -204.1810
  30   2.0000      -7.501848      -204.1357
  31   2.0000      -7.501295      -204.1206
  32   2.0000      -7.500930      -204.1107
  33   2.0000      -7.500464      -204.0980
  34   2.0000      -5.836805      -158.8275
  35   2.0000      -3.609664       -98.2240
  36   2.0000      -3.609021       -98.2065
  37   2.0000      -3.608885       -98.2027
  38   2.0000      -1.139721       -31.0134
  39   2.0000      -1.130155       -30.7531
  40   2.0000      -1.010315       -27.4921
  41   2.0000      -1.010084       -27.4858
  42   2.0000      -0.995827       -27.0978
  43   2.0000      -0.994589       -27.0641
  44   2.0000      -0.994481       -27.0612
  45   2.0000      -0.905426       -24.6379
  46   2.0000      -0.885741       -24.1022
  47   2.0000      -0.882300       -24.0086
  48   2.0000      -0.879440       -23.9308
  49   2.0000      -0.862982       -23.4829
  50   2.0000      -0.861356       -23.4387
  51   2.0000      -0.858689       -23.3661
  52   2.0000      -0.850793       -23.1512
  53   2.0000      -0.666548       -18.1377
  54   2.0000      -0.666295       -18.1308
  55   2.0000      -0.657970       -17.9043
  56   2.0000      -0.657302       -17.8861
  57   2.0000      -0.601341       -16.3633
  58   2.0000      -0.593478       -16.1494
  59   2.0000      -0.573667       -15.6103
  60   2.0000      -0.521286       -14.1849
  61   2.0000      -0.521096       -14.1797
  62   2.0000      -0.514738       -14.0067
  63   2.0000      -0.514460       -13.9992
  64   2.0000      -0.412538       -11.2257
  65   2.0000      -0.411554       -11.1990
  66   2.0000      -0.410524       -11.1709
  67   2.0000      -0.375864       -10.2278
  68   2.0000      -0.370314       -10.0767
  69   2.0000      -0.369483       -10.0541
  70   2.0000      -0.355561        -9.6753
  71   2.0000      -0.353661        -9.6236
  72   2.0000      -0.351651        -9.5689
  73   2.0000      -0.348254        -9.4765
  74   2.0000      -0.346646        -9.4327
  75   2.0000      -0.345715        -9.4074
  76   2.0000      -0.337836        -9.1930
  77   2.0000      -0.337577        -9.1859
  78   2.0000      -0.336486        -9.1563
  79   2.0000      -0.335582        -9.1317
  80   2.0000      -0.330797        -9.0015
  81   0.0000      -0.124040        -3.3753
  82   0.0000       0.036903         1.0042
  83   0.0000       0.043792         1.1916
  84   0.0000       0.081686         2.2228
  85   0.0000       0.084988         2.3126

Dispersion correction            ...

MULLIKEN ATOMIC CHARGES
-----------------------
   0 C :   -0.278408
   1 N :   -0.285099
   2 H :    0.160270
   3 H :    0.162002
   4 H :    0.161965
   5 H :    0.273961
   6 H :    0.272931
   7 H :    0.271543
   8 Pb:    1.022821
   9 Cl:   -0.409219
  10 Cl:   -0.426202
  11 Cl:   -0.413739
  12 Cl:   -0.428040
  13 Cl:   -0.426835
  14 Cl:   -0.417117
  15 N :   -0.279327
  16 C :   -0.278240
  17 H :    0.275337
  18 H :    0.275356
  19 H :    0.164867
  20 H :    0.164012
  21 H :    0.164063
  22 H :    0.273098
Sum of atomic charges:    0.0000000

LOEWDIN ATOMIC CHARGES
----------------------
   0 C :   -0.291169
   1 N :    0.073074
   2 H :    0.126504
   3 H :    0.127150
   4 H :    0.127097
   5 H :    0.156771
   6 H :    0.157057
   7 H :    0.153357
   8 Pb:   -0.516405
   9 Cl:   -0.104472
  10 Cl:   -0.150620
  11 Cl:   -0.112813
  12 Cl:   -0.159019
  13 Cl:   -0.155760
  14 Cl:   -0.114054
  15 N :    0.085081
  16 C :   -0.287008
  17 H :    0.168127
  18 H :    0.168336
  19 H :    0.128321
  20 H :    0.128061
  21 H :    0.128021
  22 H :    0.164360

  Mayer bond orders larger than 0.1
B(  0-C ,  1-N ) :   0.8938 B(  0-C ,  2-H ) :   0.9529 B(  0-C ,  3-H ) :   0.9524
B(  0-C ,  4-H ) :   0.9523 B(  1-N ,  5-H ) :   0.8066 B(  1-N ,  6-H ) :   0.8077
B(  1-N ,  7-H ) :   0.7986 B(  5-H , 11-Cl) :   0.1600 B(  6-H ,  9-Cl) :   0.1584
B(  7-H , 10-Cl) :   0.1763 B(  8-Pb,  9-Cl) :   0.6049 B(  8-Pb, 10-Cl) :   0.5653
B(  8-Pb, 11-Cl) :   0.5978 B(  8-Pb, 12-Cl) :   0.5761 B(  8-Pb, 13-Cl) :   0.5802
B(  8-Pb, 14-Cl) :   0.6004 B( 12-Cl, 17-H ) :   0.1541 B( 13-Cl, 18-H ) :   0.1501
B( 14-Cl, 22-H ) :   0.1563 B( 15-N , 16-C ) :   0.8925 B( 15-N , 17-H ) :   0.8132
B( 15-N , 18-H ) :   0.8152 B( 15-N , 22-H ) :   0.8109 B( 16-C , 19-H ) :   0.9510
B( 16-C , 20-H ) :   0.9512 B( 16-C , 21-H ) :   0.9516

MP2 TOTAL ENERGY:    -3146.413534098 Eh
Dispersion correction           -0.030448469
FINAL SINGLE POINT ENERGY     -3146.443982567055

DIPOLE MOMENT
-------------
                                X             Y             Z
Electronic contribution:      4.61353      -1.53633       1.98609
Nuclear contribution   :     -4.59996       1.14897      -2.04859
                        -----------------------------------------
Total Dipole Moment    :      0.01356      -0.38736      -0.06250
                        -----------------------------------------
Magnitude (a.u.)       :      0.39261
Magnitude (Debye)      :      0.99793

                             ****ORCA TERMINATED NORMALLY****
TOTAL RUN TIME: 0 days 0 hours 35 minutes 27 seconds 408 msec
