                         Program Version 3.0.3 - RELEASE   -
|  1> ! PW6B95 def2-TZVP GCP(DFT/TZ) ECP{def2-TZVP} Grid7 MORead
|  2> %pal nprocs 2 end
|  3> %method
|  4>  RunTyp Gradient
|  5>  end
|  6> %maxcore 2000
|  7> %moinp "previous.gbw"
|  8> *xyz 0 1
|  9> Pb 0.429175 0.299382 0.370769
| 10> Cl 3.042103 0.374126 0.822424
| 11> Cl 0.395210 2.945382 -0.172003
| 12> Cl -0.142455 0.669768 2.875379
| 13> Cs 3.408698 4.127166 3.056487
| 14> *
| 15>
| 16>                          ****END OF INPUT****

CARTESIAN COORDINATES (ANGSTROEM)
---------------------------------
  Pb     0.429175    0.299382    0.370769
  Cl     3.042103    0.374126    0.822424
  Cl     0.395210    2.945382   -0.172003
  Cl    -0.142455    0.669768    2.875379
  Cs     3.408698    4.127166    3.056487

 Total Charge           Charge          ....    0
 Multiplicity           Mult            ....    1
 Number of Electrons    NEL             ....   82
 Basis Dimension        Dim             ....  190

ORBITAL ENERGIES
----------------

  NO   OCC          E(Eh)            E(eV)
   0   2.0000    -101.830415     -2770.9465
   1   2.0000    -101.828687     -2770.8994
   2   2.0000    -101.822745     -2770.7378
   3   2.0000      -9.470405      -257.7028
   4   2.0000      -9.468853      -257.6606
   5   2.0000      -9.462484      -257.4873
   6   2.0000      -7.200074      -195.9240
   7   2.0000      -7.198645      -195.8851
   8   2.0000      -7.197576      -195.8560
   9   2.0000      -7.197216      -195.8462
  10   2.0000      -7.195837      -195.8087
  11   2.0000      -7.195647      -195.8035
  12   2.0000      -7.192196      -195.7096
  13   2.0000      -7.189646      -195.6402
  14   2.0000      -7.189322      -195.6314
  15   2.0000      -5.535310      -150.6234
  16   2.0000      -3.359278       -91.4106
  17   2.0000      -3.358785       -91.3972
  18   2.0000      -3.357591       -91.3647
  19   2.0000      -1.140203       -31.0265
  20   2.0000      -0.853972       -23.2378
  21   2.0000      -0.852943       -23.2098
  22   2.0000      -0.848779       -23.0964
  23   2.0000      -0.848398       -23.0861
  24   2.0000      -0.847469       -23.0608
  25   2.0000      -0.744366       -20.2552
  26   2.0000      -0.729348       -19.8466
  27   2.0000      -0.723785       -19.6952
  28   2.0000      -0.609591       -16.5878
  29   2.0000      -0.609185       -16.5768
  30   2.0000      -0.606007       -16.4903
  31   2.0000      -0.471942       -12.8422
  32   2.0000      -0.295180        -8.0323
  33   2.0000      -0.290906        -7.9160
  34   2.0000      -0.281192        -7.6516
  35   2.0000      -0.264403        -7.1948
  36   2.0000      -0.263414        -7.1679
  37   2.0000      -0.251230        -6.8363
  38   2.0000      -0.247956        -6.7472
  39   2.0000      -0.246006        -6.6942
  40   2.0000      -0.240092        -6.5332
  41   0.0000      -0.074681        -2.0322
  42   0.0000      -0.023037        -0.6269
  43   0.0000      -0.022929        -0.6239
  44   0.0000      -0.021671        -0.5897
  45   0.0000      -0.012770        -0.3475

MULLIKEN ATOMIC CHARGES
-----------------------
   0 Pb:    0.790205
   1 Cl:   -0.560358
   2 Cl:   -0.567285
   3 Cl:   -0.533523
   4 Cs:    0.870960
Sum of atomic charges:   -0.0000000

LOEWDIN ATOMIC CHARGES
----------------------
   0 Pb:    0.100336
   1 Cl:   -0.254427
   2 Cl:   -0.287485
   3 Cl:   -0.230314
   4 Cs:    0.671890

  Mayer bond orders larger than 0.1
B(  0-Pb,  1-Cl) :   0.6485 B(  0-Pb,  2-Cl) :   0.6478 B(  0-Pb,  3-Cl) :   0.7295
B(  1-Cl,  4-Cs) :   0.1008

FINAL SINGLE POINT ENERGY     -1595.045404995400

DIPOLE MOMENT
-------------
                                X             Y             Z
Electronic contribution:     50.13137      53.78891      32.88559
Nuclear contribution   :    -46.98014     -50.20093     -30.37402
                        -----------------------------------------
Total Dipole Moment    :      3.15123       3.58798       2.51158
                        -----------------------------------------
Magnitude (a.u.)       :      5.39555
Magnitude (Debye)      :     13.71439

                             ****ORCA TERMINATED NORMALLY****
TOTAL RUN TIME: 0 days 0 hours 12 minutes 46 seconds 72 msec
