                         Program Version 3.0.3 - RELEASE   -
|  1> ! RIJCOSX RI-B2PLYP D3BJ def2-TZVP ECP{def2-TZVP} TIGHTSCF Grid5 FinalGrid6 MORead
|  2> %method
|  3>  RunTyp Gradient
|  4>  end
|  5> %maxcore 1000
|  6> %moinp "previous.gbw"
|  7> *xyz 0 1
|  8> C 2.891451 3.575826 2.778059
|  9> N 2.089424 2.555032 2.059582
| 10> H 3.558472 3.076137 3.484362
| 11> H 2.218727 4.247132 3.316750
| 12> H 3.479382 4.144646 2.054078
| 13> H 1.492676 1.958835 2.673590
| 14> H 2.651801 1.866309 1.511973
| 15> H 1.418732 2.942131 1.359080
| 16> Pb 0.145418 0.076194 0.263922
| 17> Cl 2.738825 0.241879 0.312090
| 18> Cl -0.045403 2.696099 -0.044826
| 19> Cl 0.216237 0.348070 2.975488
| 20> Cl -2.389251 -0.120230 0.397831
| 21> Cl 0.165132 -0.364384 -2.371747
| 22> Cl 0.277671 -2.461393 0.704528
| 23> N -1.944119 -2.595072 -1.633806
| 24> C -2.725500 -3.643046 -2.335777
| 25> H -2.519034 -1.905375 -1.102173
| 26> H -1.352579 -2.002501 -2.255638
| 27> H -3.308461 -4.206070 -1.603344
| 28> H -2.038395 -4.314606 -2.855607
| 29> H -3.396098 -3.169682 -3.056568
| 30> H -1.270867 -2.959590 -0.921865
| 31> *
| 32>
| 33>                          ****END OF INPUT****

CARTESIAN COORDINATES (ANGSTROEM)
---------------------------------
  C      2.891451    3.575826    2.778059
  N      2.089424    2.555032    2.059582
  H      3.558472    3.076137    3.484362
  H      2.218727    4.247132    3.316750
  H      3.479382    4.144646    2.054078
  H      1.492676    1.958835    2.673590
  H      2.651801    1.866309    1.511973
  H      1.418732    2.942131    1.359080
  Pb     0.145418    0.076194    0.263922
  Cl     2.738825    0.241879    0.312090
  Cl    -0.045403    2.696099   -0.044826
  Cl     0.216237    0.348070    2.975488
  Cl    -2.389251   -0.120230    0.397831
  Cl     0.165132   -0.364384   -2.371747
  Cl     0.277671   -2.461393    0.704528
  N     -1.944119   -2.595072   -1.633806
  C     -2.725500   -3.643046   -2.335777
  H     -2.519034   -1.905375   -1.102173
  H     -1.352579   -2.002501   -2.255638
  H     -3.308461   -4.206070   -1.603344
  H     -2.038395   -4.314606   -2.855607
  H     -3.396098   -3.169682   -3.056568
  H     -1.270867   -2.959590   -0.921865

 Total Charge           Charge          ....    0
 Multiplicity           Mult            ....    1
 Number of Electrons    NEL             ....  162
 Basis Dimension        Dim             ....  468

ORBITAL ENERGIES
----------------

  NO   OCC          E(Eh)            E(eV)
   0   2.0000    -102.874516     -2799.3579
   1   2.0000    -102.872378     -2799.2997
   2   2.0000    -102.869919     -2799.2328
   3   2.0000    -102.866228     -2799.1324
   4   2.0000    -102.865002     -2799.0990
   5   2.0000    -102.850203     -2798.6963
   6   2.0000     -14.975948      -407.5163
   7   2.0000     -14.934709      -406.3941
   8   2.0000     -10.717883      -291.6484
   9   2.0000     -10.695027      -291.0265
  10   2.0000      -9.880887      -268.8726
  11   2.0000      -9.879114      -268.8244
  12   2.0000      -9.876329      -268.7486
  13   2.0000      -9.872601      -268.6471
  14   2.0000      -9.870939      -268.6019
  15   2.0000      -9.856425      -268.2070
  16   2.0000      -7.519077      -204.6045
  17   2.0000      -7.517140      -204.5518
  18   2.0000      -7.515715      -204.5130
  19   2.0000      -7.515319      -204.5022
  20   2.0000      -7.514272      -204.4737
  21   2.0000      -7.514079      -204.4685
  22   2.0000      -7.513512      -204.4530
  23   2.0000      -7.511358      -204.3944
  24   2.0000      -7.510817      -204.3797
  25   2.0000      -7.510654      -204.3753
  26   2.0000      -7.508850      -204.3262
  27   2.0000      -7.507538      -204.2905
  28   2.0000      -7.507093      -204.2784
  29   2.0000      -7.506044      -204.2499
  30   2.0000      -7.505577      -204.2371
  31   2.0000      -7.494173      -203.9268
  32   2.0000      -7.491643      -203.8580
  33   2.0000      -7.491069      -203.8424
  34   2.0000      -5.838625      -158.8771
  35   2.0000      -3.611473       -98.2732
  36   2.0000      -3.610764       -98.2539
  37   2.0000      -3.610687       -98.2518
  38   2.0000      -1.149089       -31.2683
  39   2.0000      -1.119381       -30.4599
  40   2.0000      -1.014190       -27.5975
  41   2.0000      -1.009253       -27.4632
  42   2.0000      -0.997509       -27.1436
  43   2.0000      -0.996330       -27.1115
  44   2.0000      -0.996232       -27.1088
  45   2.0000      -0.904723       -24.6188
  46   2.0000      -0.891479       -24.2584
  47   2.0000      -0.885213       -24.0879
  48   2.0000      -0.875108       -23.8129
  49   2.0000      -0.866628       -23.5821
  50   2.0000      -0.865810       -23.5599
  51   2.0000      -0.858707       -23.3666
  52   2.0000      -0.841574       -22.9004
  53   2.0000      -0.675738       -18.3878
  54   2.0000      -0.674954       -18.3664
  55   2.0000      -0.648236       -17.6394
  56   2.0000      -0.647068       -17.6076
  57   2.0000      -0.609377       -16.5820
  58   2.0000      -0.584389       -15.9020
  59   2.0000      -0.574418       -15.6307
  60   2.0000      -0.528194       -14.3729
  61   2.0000      -0.528009       -14.3678
  62   2.0000      -0.507308       -13.8046
  63   2.0000      -0.506559       -13.7842
  64   2.0000      -0.417594       -11.3633
  65   2.0000      -0.412918       -11.2361
  66   2.0000      -0.405590       -11.0367
  67   2.0000      -0.377564       -10.2740
  68   2.0000      -0.371674       -10.1138
  69   2.0000      -0.367654       -10.0044
  70   2.0000      -0.357362        -9.7243
  71   2.0000      -0.355184        -9.6650
  72   2.0000      -0.351643        -9.5687
  73   2.0000      -0.349988        -9.5236
  74   2.0000      -0.347402        -9.4533
  75   2.0000      -0.344007        -9.3609
  76   2.0000      -0.341141        -9.2829
  77   2.0000      -0.338685        -9.2161
  78   2.0000      -0.334139        -9.0924
  79   2.0000      -0.333683        -9.0800
  80   2.0000      -0.328406        -8.9364
  81   0.0000      -0.126807        -3.4506
  82   0.0000       0.029931         0.8145
  83   0.0000       0.051150         1.3919
  84   0.0000       0.072017         1.9597
  85   0.0000       0.078931         2.1478

Dispersion correction            ...

MULLIKEN ATOMIC CHARGES
-----------------------
   0 C :   -0.278088
   1 N :   -0.292112
   2 H :    0.158837
   3 H :    0.158680
   4 H :    0.157709
   5 H :    0.271726
   6 H :    0.274657
   7 H :    0.271500
   8 Pb:    1.018683
   9 Cl:   -0.399321
  10 Cl:   -0.414044
  11 Cl:   -0.443520
  12 Cl:   -0.401436
  13 Cl:   -0.442763
  14 Cl:   -0.413658
  15 N :   -0.280930
  16 C :   -0.278394
  17 H :    0.279690
  18 H :    0.277082
  19 H :    0.167149
  20 H :    0.167252
  21 H :    0.165484
  22 H :    0.275818
Sum of atomic charges:   -0.0000000

LOEWDIN ATOMIC CHARGES
----------------------
   0 C :   -0.295017
   1 N :    0.063855
   2 H :    0.126002
   3 H :    0.125864
   4 H :    0.125306
   5 H :    0.147375
   6 H :    0.143907
   7 H :    0.145529
   8 Pb:   -0.498899
   9 Cl:   -0.092376
  10 Cl:   -0.125338
  11 Cl:   -0.189492
  12 Cl:   -0.094254
  13 Cl:   -0.175055
  14 Cl:   -0.120722
  15 N :    0.090954
  16 C :   -0.284373
  17 H :    0.177010
  18 H :    0.167892
  19 H :    0.129073
  20 H :    0.129490
  21 H :    0.128699
  22 H :    0.174569

  Mayer bond orders larger than 0.1
B(  0-C ,  1-N ) :   0.8960 B(  0-C ,  2-H ) :   0.9538 B(  0-C ,  3-H ) :   0.9535
B(  0-C ,  4-H ) :   0.9535 B(  1-N ,  5-H ) :   0.7926 B(  1-N ,  6-H ) :   0.7966
B(  1-N ,  7-H ) :   0.7993 B(  5-H , 11-Cl) :   0.1872 B(  6-H ,  9-Cl) :   0.1703
B(  7-H , 10-Cl) :   0.1695 B(  8-Pb,  9-Cl) :   0.5912 B(  8-Pb, 10-Cl) :   0.5788
B(  8-Pb, 11-Cl) :   0.5467 B(  8-Pb, 12-Cl) :   0.6248 B(  8-Pb, 13-Cl) :   0.5690
B(  8-Pb, 14-Cl) :   0.6064 B( 12-Cl, 17-H ) :   0.1277 B( 13-Cl, 18-H ) :   0.1563
B( 14-Cl, 22-H ) :   0.1485 B( 15-N , 16-C ) :   0.8904 B( 15-N , 17-H ) :   0.8260
B( 15-N , 18-H ) :   0.8101 B( 15-N , 22-H ) :   0.8174 B( 16-C , 19-H ) :   0.9501
B( 16-C , 20-H ) :   0.9502 B( 16-C , 21-H ) :   0.9508

MP2 TOTAL ENERGY:    -3146.408469844 Eh
Dispersion correction           -0.030403955
FINAL SINGLE POINT ENERGY     -3146.438873799036

DIPOLE MOMENT
-------------
                                X             Y             Z
Electronic contribution:      0.69877       3.77476      -2.98233
Nuclear contribution   :     -1.23822      -4.34800       2.31219
                        -----------------------------------------
Total Dipole Moment    :     -0.53945      -0.57324      -0.67014
                        -----------------------------------------
Magnitude (a.u.)       :      1.03378
Magnitude (Debye)      :      2.62767

                             ****ORCA TERMINATED NORMALLY****
TOTAL RUN TIME: 0 days 0 hours 54 minutes 55 seconds 730 msec
