                         Program Version 3.0.3 - RELEASE   -
|  1> ! RIJCOSX RI-B2PLYP D3BJ def2-TZVP ECP{def2-TZVP} TIGHTSCF Grid5 FinalGrid6 SlowConv MORead
|  2> %method
|  3>  RunTyp Gradient
|  4>  end
|  5> %maxcore 1000
|  6> %moinp "previous.gbw"
|  7> *xyz 0 1
|  8> C 2.905719 3.576013 2.873338
|  9> N 2.134625 2.614408 2.046990
| 10> H 3.548796 3.021424 3.560517
| 11> H 2.209179 4.197444 3.440826
| 12> H 3.515705 4.204875 2.220874
| 13> H 1.516852 1.975028 2.601630
| 14> H 2.717740 1.973704 1.464858
| 15> H 1.486857 3.059076 1.361735
| 16> Pb 0.459138 0.131547 0.209487
| 17> Cl 2.715957 0.268387 0.089874
| 18> Cl -0.167414 2.735046 -0.108798
| 19> Cl -0.632542 0.320768 2.851419
| 20> *
| 21>
| 22>                          ****END OF INPUT****

CARTESIAN COORDINATES (ANGSTROEM)
---------------------------------
  C      2.905719    3.576013    2.873338
  N      2.134625    2.614408    2.046990
  H      3.548796    3.021424    3.560517
  H      2.209179    4.197444    3.440826
  H      3.515705    4.204875    2.220874
  H      1.516852    1.975028    2.601630
  H      2.717740    1.973704    1.464858
  H      1.486857    3.059076    1.361735
  Pb     0.459138    0.131547    0.209487
  Cl     2.715957    0.268387    0.089874
  Cl    -0.167414    2.735046   -0.108798
  Cl    -0.632542    0.320768    2.851419

 Total Charge           Charge          ....    0
 Multiplicity           Mult            ....    1
 Number of Electrons    NEL             ....   92
 Basis Dimension        Dim             ....  259

ORBITAL ENERGIES
----------------

  NO   OCC          E(Eh)            E(eV)
   0   2.0000    -102.899086     -2800.0265
   1   2.0000    -102.843244     -2798.5069
   2   2.0000    -102.816399     -2797.7764
   3   2.0000     -14.987449      -407.8292
   4   2.0000     -10.723796      -291.8093
   5   2.0000      -9.909971      -269.6640
   6   2.0000      -9.849734      -268.0249
   7   2.0000      -9.821571      -267.2585
   8   2.0000      -7.546932      -205.3625
   9   2.0000      -7.544972      -205.3091
  10   2.0000      -7.544629      -205.2998
  11   2.0000      -7.486802      -203.7262
  12   2.0000      -7.485365      -203.6871
  13   2.0000      -7.484778      -203.6712
  14   2.0000      -7.458685      -202.9611
  15   2.0000      -7.457198      -202.9207
  16   2.0000      -7.456838      -202.9109
  17   2.0000      -5.803473      -157.9205
  18   2.0000      -3.575301       -97.2889
  19   2.0000      -3.574063       -97.2552
  20   2.0000      -3.573277       -97.2338
  21   2.0000      -1.159718       -31.5575
  22   2.0000      -1.008369       -27.4391
  23   2.0000      -0.967534       -26.3279
  24   2.0000      -0.964994       -26.2588
  25   2.0000      -0.963768       -26.2255
  26   2.0000      -0.962654       -26.1951
  27   2.0000      -0.910413       -24.7736
  28   2.0000      -0.876734       -23.8571
  29   2.0000      -0.856235       -23.2993
  30   2.0000      -0.823404       -22.4060
  31   2.0000      -0.687251       -18.7011
  32   2.0000      -0.684069       -18.6145
  33   2.0000      -0.618007       -16.8168
  34   2.0000      -0.568886       -15.4802
  35   2.0000      -0.534780       -14.5521
  36   2.0000      -0.533938       -14.5292
  37   2.0000      -0.414823       -11.2879
  38   2.0000      -0.409390       -11.1401
  39   2.0000      -0.396700       -10.7948
  40   2.0000      -0.346292        -9.4231
  41   2.0000      -0.342045        -9.3075
  42   2.0000      -0.333776        -9.0825
  43   2.0000      -0.311753        -8.4832
  44   2.0000      -0.302449        -8.2301
  45   2.0000      -0.287982        -7.8364
  46   0.0000      -0.015517        -0.4222
  47   0.0000       0.003751         0.1021
  48   0.0000       0.023928         0.6511
  49   0.0000       0.047624         1.2959
  50   0.0000       0.072849         1.9823

Dispersion correction            ...

MULLIKEN ATOMIC CHARGES
-----------------------
   0 C :   -0.275685
   1 N :   -0.309281
   2 H :    0.165635
   3 H :    0.175467
   4 H :    0.166480
   5 H :    0.285429
   6 H :    0.285486
   7 H :    0.284288
   8 Pb:    0.768823
   9 Cl:   -0.443996
  10 Cl:   -0.533961
  11 Cl:   -0.568685
Sum of atomic charges:    0.0000000

LOEWDIN ATOMIC CHARGES
----------------------
   0 C :   -0.280292
   1 N :    0.091835
   2 H :    0.129023
   3 H :    0.132745
   4 H :    0.129516
   5 H :    0.195468
   6 H :    0.167998
   7 H :    0.168883
   8 Pb:   -0.055126
   9 Cl:    0.002614
  10 Cl:   -0.283959
  11 Cl:   -0.398704

  Mayer bond orders larger than 0.1
B(  0-C ,  1-N ) :   0.8859 B(  0-C ,  2-H ) :   0.9510 B(  0-C ,  3-H ) :   0.9488
B(  0-C ,  4-H ) :   0.9501 B(  1-N ,  5-H ) :   0.8235 B(  1-N ,  6-H ) :   0.8231
B(  1-N ,  7-H ) :   0.7978 B(  5-H , 11-Cl) :   0.1422 B(  6-H ,  9-Cl) :   0.1151
B(  7-H , 10-Cl) :   0.1745 B(  8-Pb,  9-Cl) :   0.7774 B(  8-Pb, 10-Cl) :   0.5923
B(  8-Pb, 11-Cl) :   0.5839

MP2 TOTAL ENERGY:    -1669.585896078 Eh
Dispersion correction           -0.013131131
FINAL SINGLE POINT ENERGY     -1669.599027208989

DIPOLE MOMENT
-------------
                                X             Y             Z
Electronic contribution:    -45.22961     -98.78698     -75.11161
Nuclear contribution   :     47.93902      99.85676      75.48845
                        -----------------------------------------
Total Dipole Moment    :      2.70941       1.06978       0.37684
                        -----------------------------------------
Magnitude (a.u.)       :      2.93723
Magnitude (Debye)      :      7.46585

                             ****ORCA TERMINATED NORMALLY****
TOTAL RUN TIME: 0 days 0 hours 17 minutes 20 seconds 790 msec
