                         Program Version 3.0.3 - RELEASE   -
|  1> ! RIJCOSX RI-B2PLYP D3BJ def2-TZVP ECP{def2-TZVP} TIGHTSCF Grid5 FinalGrid6 SlowConv MORead
|  2> %method
|  3>  RunTyp Gradient
|  4>  end
|  5> %maxcore 1000
|  6> %moinp "previous.gbw"
|  7> *xyz 0 1
|  8> C 2.905719 3.576013 2.873338
|  9> N 2.134625 2.614408 2.046990
| 10> H 3.548796 3.021424 3.560517
| 11> H 2.209179 4.197444 3.440826
| 12> H 3.515705 4.204875 2.220874
| 13> H 1.516852 1.975028 2.601630
| 14> H 2.717740 1.973704 1.464858
| 15> H 1.486857 3.059076 1.361735
| 16> Pb 0.185789 0.131547 0.209487
| 17> Cl 2.758188 0.268387 0.089874
| 18> Cl -0.183078 2.735046 -0.108798
| 19> Cl 0.181488 0.320768 2.851419
| 20> *
| 21>
| 22>                          ****END OF INPUT****

CARTESIAN COORDINATES (ANGSTROEM)
---------------------------------
  C      2.905719    3.576013    2.873338
  N      2.134625    2.614408    2.046990
  H      3.548796    3.021424    3.560517
  H      2.209179    4.197444    3.440826
  H      3.515705    4.204875    2.220874
  H      1.516852    1.975028    2.601630
  H      2.717740    1.973704    1.464858
  H      1.486857    3.059076    1.361735
  Pb     0.185789    0.131547    0.209487
  Cl     2.758188    0.268387    0.089874
  Cl    -0.183078    2.735046   -0.108798
  Cl     0.181488    0.320768    2.851419

 Total Charge           Charge          ....    0
 Multiplicity           Mult            ....    1
 Number of Electrons    NEL             ....   92
 Basis Dimension        Dim             ....  259

ORBITAL ENERGIES
----------------

  NO   OCC          E(Eh)            E(eV)
   0   2.0000    -102.858678     -2798.9269
   1   2.0000    -102.852300     -2798.7534
   2   2.0000    -102.850246     -2798.6975
   3   2.0000     -14.958346      -407.0373
   4   2.0000     -10.707187      -291.3574
   5   2.0000      -9.865913      -268.4651
   6   2.0000      -9.859156      -268.2813
   7   2.0000      -9.856950      -268.2213
   8   2.0000      -7.503097      -204.1696
   9   2.0000      -7.501325      -204.1214
  10   2.0000      -7.500926      -204.1106
  11   2.0000      -7.496278      -203.9841
  12   2.0000      -7.494711      -203.9414
  13   2.0000      -7.494194      -203.9274
  14   2.0000      -7.494108      -203.9250
  15   2.0000      -7.492409      -203.8788
  16   2.0000      -7.492039      -203.8688
  17   2.0000      -5.807339      -158.0257
  18   2.0000      -3.578105       -97.3652
  19   2.0000      -3.577868       -97.3587
  20   2.0000      -3.577068       -97.3370
  21   2.0000      -1.135149       -30.8890
  22   2.0000      -0.975478       -26.5441
  23   2.0000      -0.973365       -26.4866
  24   2.0000      -0.965961       -26.2851
  25   2.0000      -0.965627       -26.2760
  26   2.0000      -0.965134       -26.2626
  27   2.0000      -0.887334       -24.1456
  28   2.0000      -0.865761       -23.5586
  29   2.0000      -0.861220       -23.4350
  30   2.0000      -0.854442       -23.2506
  31   2.0000      -0.662938       -18.0394
  32   2.0000      -0.661840       -18.0096
  33   2.0000      -0.597015       -16.2456
  34   2.0000      -0.556432       -15.1413
  35   2.0000      -0.518054       -14.0970
  36   2.0000      -0.517502       -14.0819
  37   2.0000      -0.382890       -10.4190
  38   2.0000      -0.379248       -10.3199
  39   2.0000      -0.371536       -10.1100
  40   2.0000      -0.353487        -9.6189
  41   2.0000      -0.353315        -9.6142
  42   2.0000      -0.340898        -9.2763
  43   2.0000      -0.340550        -9.2668
  44   2.0000      -0.334526        -9.1029
  45   2.0000      -0.312244        -8.4966
  46   0.0000       0.001572         0.0428
  47   0.0000       0.003023         0.0823
  48   0.0000       0.008498         0.2312
  49   0.0000       0.040559         1.1037
  50   0.0000       0.090516         2.4631

Dispersion correction            ...

MULLIKEN ATOMIC CHARGES
-----------------------
   0 C :   -0.275872
   1 N :   -0.297042
   2 H :    0.162566
   3 H :    0.163358
   4 H :    0.161147
   5 H :    0.282661
   6 H :    0.282845
   7 H :    0.279581
   8 Pb:    0.809714
   9 Cl:   -0.514345
  10 Cl:   -0.530308
  11 Cl:   -0.524306
Sum of atomic charges:   -0.0000000

LOEWDIN ATOMIC CHARGES
----------------------
   0 C :   -0.288421
   1 N :    0.080862
   2 H :    0.127778
   3 H :    0.127989
   4 H :    0.126683
   5 H :    0.160004
   6 H :    0.164181
   7 H :    0.167595
   8 Pb:    0.048448
   9 Cl:   -0.210219
  10 Cl:   -0.257635
  11 Cl:   -0.247265

  Mayer bond orders larger than 0.1
B(  0-C ,  1-N ) :   0.8938 B(  0-C ,  2-H ) :   0.9523 B(  0-C ,  3-H ) :   0.9518
B(  0-C ,  4-H ) :   0.9522 B(  1-N ,  5-H ) :   0.7975 B(  1-N ,  6-H ) :   0.8131
B(  1-N ,  7-H ) :   0.8171 B(  5-H , 11-Cl) :   0.1719 B(  6-H ,  9-Cl) :   0.1420
B(  7-H , 10-Cl) :   0.1422 B(  8-Pb,  9-Cl) :   0.6540 B(  8-Pb, 10-Cl) :   0.6312
B(  8-Pb, 11-Cl) :   0.6191

MP2 TOTAL ENERGY:    -1669.632365079 Eh
Dispersion correction           -0.013566831
FINAL SINGLE POINT ENERGY     -1669.645931910000

DIPOLE MOMENT
-------------
                                X             Y             Z
Electronic contribution:    -76.15719     -98.94470     -74.79930
Nuclear contribution   :     77.07833      99.85676      75.48845
                        -----------------------------------------
Total Dipole Moment    :      0.92114       0.91206       0.68915
                        -----------------------------------------
Magnitude (a.u.)       :      1.46809
Magnitude (Debye)      :      3.73158

                             ****ORCA TERMINATED NORMALLY****
TOTAL RUN TIME: 0 days 0 hours 11 minutes 21 seconds 720 msec
