                         Program Version 3.0.3 - RELEASE   -
|  1> ! PW6B95 def2-TZVP GCP(DFT/TZ) ECP{def2-TZVP} Grid7 MORead
|  2> %pal nprocs 2 end
|  3> %method
|  4>  RunTyp Gradient
|  5>  end
|  6> %maxcore 2000
|  7> %moinp "previous.gbw"
|  8> *xyz 0 1
|  9> Pb 0.404581 0.525701 0.211128
| 10> Cl 2.936733 0.375859 0.452309
| 11> Cl 0.418434 3.069081 0.805198
| 12> Cl 0.038061 -0.162558 2.707900
| 13> Cs 3.425465 4.058882 3.008625
| 14> *
| 15>
| 16>                          ****END OF INPUT****

CARTESIAN COORDINATES (ANGSTROEM)
---------------------------------
  Pb     0.404581    0.525701    0.211128
  Cl     2.936733    0.375859    0.452309
  Cl     0.418434    3.069081    0.805198
  Cl     0.038061   -0.162558    2.707900
  Cs     3.425465    4.058882    3.008625

 Total Charge           Charge          ....    0
 Multiplicity           Mult            ....    1
 Number of Electrons    NEL             ....   82
 Basis Dimension        Dim             ....  190

ORBITAL ENERGIES
----------------

  NO   OCC          E(Eh)            E(eV)
   0   2.0000    -101.840052     -2771.2087
   1   2.0000    -101.834294     -2771.0520
   2   2.0000    -101.817196     -2770.5868
   3   2.0000      -9.480530      -257.9783
   4   2.0000      -9.474909      -257.8254
   5   2.0000      -9.457236      -257.3445
   6   2.0000      -7.210065      -196.1958
   7   2.0000      -7.207717      -196.1320
   8   2.0000      -7.207377      -196.1227
   9   2.0000      -7.204602      -196.0472
  10   2.0000      -7.201954      -195.9751
  11   2.0000      -7.201649      -195.9668
  12   2.0000      -7.187126      -195.5716
  13   2.0000      -7.184154      -195.4908
  14   2.0000      -7.184019      -195.4871
  15   2.0000      -5.529316      -150.4604
  16   2.0000      -3.353684       -91.2584
  17   2.0000      -3.352812       -91.2347
  18   2.0000      -3.351417       -91.1967
  19   2.0000      -1.134627       -30.8748
  20   2.0000      -0.851406       -23.1679
  21   2.0000      -0.848855       -23.0985
  22   2.0000      -0.843657       -22.9571
  23   2.0000      -0.843004       -22.9393
  24   2.0000      -0.841672       -22.9031
  25   2.0000      -0.754950       -20.5432
  26   2.0000      -0.737262       -20.0619
  27   2.0000      -0.720212       -19.5980
  28   2.0000      -0.604667       -16.4538
  29   2.0000      -0.603929       -16.4337
  30   2.0000      -0.600022       -16.3274
  31   2.0000      -0.471954       -12.8425
  32   2.0000      -0.305602        -8.3158
  33   2.0000      -0.296070        -8.0565
  34   2.0000      -0.289545        -7.8789
  35   2.0000      -0.272284        -7.4092
  36   2.0000      -0.270018        -7.3476
  37   2.0000      -0.259470        -7.0606
  38   2.0000      -0.245721        -6.6864
  39   2.0000      -0.243079        -6.6145
  40   2.0000      -0.236842        -6.4448
  41   0.0000      -0.072042        -1.9604
  42   0.0000      -0.021681        -0.5900
  43   0.0000      -0.021594        -0.5876
  44   0.0000      -0.019877        -0.5409
  45   0.0000      -0.010309        -0.2805

MULLIKEN ATOMIC CHARGES
-----------------------
   0 Pb:    0.779311
   1 Cl:   -0.534598
   2 Cl:   -0.569384
   3 Cl:   -0.533422
   4 Cs:    0.858093
Sum of atomic charges:   -0.0000000

LOEWDIN ATOMIC CHARGES
----------------------
   0 Pb:    0.024649
   1 Cl:   -0.196326
   2 Cl:   -0.211816
   3 Cl:   -0.250553
   4 Cs:    0.634045

  Mayer bond orders larger than 0.1
B(  0-Pb,  1-Cl) :   0.7059 B(  0-Pb,  2-Cl) :   0.5916 B(  0-Pb,  3-Cl) :   0.7452
B(  2-Cl,  4-Cs) :   0.1485

FINAL SINGLE POINT ENERGY     -1595.051299420793

DIPOLE MOMENT
-------------
                                X             Y             Z
Electronic contribution:     47.96370      73.33013      17.22815
Nuclear contribution   :    -44.77248     -69.08998     -15.42347
                        -----------------------------------------
Total Dipole Moment    :      3.19122       4.24014       1.80468
                        -----------------------------------------
Magnitude (a.u.)       :      5.60532
Magnitude (Debye)      :     14.24759

                             ****ORCA TERMINATED NORMALLY****
TOTAL RUN TIME: 0 days 0 hours 12 minutes 22 seconds 825 msec
