                         Program Version 3.0.3 - RELEASE   -
|  1> ! RIJCOSX RI-B2PLYP D3BJ def2-TZVP ECP{def2-TZVP} TIGHTSCF Grid5 FinalGrid6 SlowConv MORead
|  2> %method
|  3>  RunTyp Gradient
|  4>  end
|  5> %maxcore 1000
|  6> %moinp "previous.gbw"
|  7> *xyz 0 1
|  8> C -0.760190 0.909341 -1.086440
|  9> N -1.977690 1.456660 -1.577970
| 10> H -2.691090 1.445120 -0.786035
| 11> H -2.304120 0.990955 -2.421840
| 12> H -1.868850 2.367110 -1.753930
| 13> H -0.842687 -0.183835 -0.878458
| 14> H -0.526251 1.481800 -0.138118
| 15> H -0.028525 0.915195 -1.900720
| 16> Pb -2.874560 -2.630780 -2.008110
| 17> Cl -1.385350 -4.356700 -3.237970
| 18> Cl -2.704660 -0.420993 -3.104400
| 19> Cl -5.146600 -3.314820 -1.376770
| 20> *
| 21>
| 22>                          ****END OF INPUT****

CARTESIAN COORDINATES (ANGSTROEM)
---------------------------------
  C     -0.760190    0.909341   -1.086440
  N     -1.977690    1.456660   -1.577970
  H     -2.691090    1.445120   -0.786035
  H     -2.304120    0.990955   -2.421840
  H     -1.868850    2.367110   -1.753930
  H     -0.842687   -0.183835   -0.878458
  H     -0.526251    1.481800   -0.138118
  H     -0.028525    0.915195   -1.900720
  Pb    -2.874560   -2.630780   -2.008110
  Cl    -1.385350   -4.356700   -3.237970
  Cl    -2.704660   -0.420993   -3.104400
  Cl    -5.146600   -3.314820   -1.376770

 Total Charge           Charge          ....    0
 Multiplicity           Mult            ....    1
 Number of Electrons    NEL             ....   92
 Basis Dimension        Dim             ....  259

ORBITAL ENERGIES
----------------

  NO   OCC          E(Eh)            E(eV)
   0   2.0000    -102.871331     -2799.2712
   1   2.0000    -102.826157     -2798.0420
   2   2.0000    -102.807212     -2797.5265
   3   2.0000     -14.995759      -408.0553
   4   2.0000     -10.735463      -292.1268
   5   2.0000      -9.884154      -268.9615
   6   2.0000      -9.833790      -267.5910
   7   2.0000      -9.813755      -267.0459
   8   2.0000      -7.520844      -204.6526
   9   2.0000      -7.519104      -204.6052
  10   2.0000      -7.518845      -204.5982
  11   2.0000      -7.470849      -203.2921
  12   2.0000      -7.468965      -203.2409
  13   2.0000      -7.468840      -203.2375
  14   2.0000      -7.450855      -202.7481
  15   2.0000      -7.449053      -202.6990
  16   2.0000      -7.448932      -202.6957
  17   2.0000      -5.776213      -157.1788
  18   2.0000      -3.549221       -96.5792
  19   2.0000      -3.546896       -96.5159
  20   2.0000      -3.544671       -96.4554
  21   2.0000      -1.217312       -33.1247
  22   2.0000      -0.965409       -26.2701
  23   2.0000      -0.947550       -25.7841
  24   2.0000      -0.941261       -25.6130
  25   2.0000      -0.936661       -25.4878
  26   2.0000      -0.936432       -25.4816
  27   2.0000      -0.913997       -24.8711
  28   2.0000      -0.887318       -24.1452
  29   2.0000      -0.842828       -22.9345
  30   2.0000      -0.819929       -22.3114
  31   2.0000      -0.744164       -20.2497
  32   2.0000      -0.729552       -19.8521
  33   2.0000      -0.636699       -17.3255
  34   2.0000      -0.564995       -15.3743
  35   2.0000      -0.538186       -14.6448
  36   2.0000      -0.521267       -14.1844
  37   2.0000      -0.401369       -10.9218
  38   2.0000      -0.390867       -10.6360
  39   2.0000      -0.385274       -10.4838
  40   2.0000      -0.348046        -9.4708
  41   2.0000      -0.326883        -8.8949
  42   2.0000      -0.321589        -8.7509
  43   2.0000      -0.302362        -8.2277
  44   2.0000      -0.300737        -8.1835
  45   2.0000      -0.245357        -6.6765
  46   0.0000      -0.020937        -0.5697
  47   0.0000      -0.014578        -0.3967
  48   0.0000       0.038361         1.0439
  49   0.0000       0.050886         1.3847
  50   0.0000       0.056558         1.5390

Dispersion correction            ...

MULLIKEN ATOMIC CHARGES
-----------------------
   0 C :   -0.302826
   1 N :   -0.253183
   2 H :    0.301035
   3 H :    0.280853
   4 H :    0.248403
   5 H :    0.179330
   6 H :    0.152659
   7 H :    0.175691
   8 Pb:    0.737680
   9 Cl:   -0.527643
  10 Cl:   -0.502875
  11 Cl:   -0.489124
Sum of atomic charges:   -0.0000000

LOEWDIN ATOMIC CHARGES
----------------------
   0 C :   -0.328807
   1 N :    0.121771
   2 H :    0.228945
   3 H :    0.044553
   4 H :    0.152786
   5 H :    0.138582
   6 H :    0.136143
   7 H :    0.137179
   8 Pb:   -0.164024
   9 Cl:   -0.257476
  10 Cl:   -0.046745
  11 Cl:   -0.162907

  Mayer bond orders larger than 0.1
B(  0-C ,  1-N ) :   0.8927 B(  0-C ,  5-H ) :   0.9409 B(  0-C ,  6-H ) :   0.9407
B(  0-C ,  7-H ) :   0.9492 B(  1-N ,  2-H ) :   0.8707 B(  1-N ,  3-H ) :   0.6760
B(  1-N ,  4-H ) :   0.9039 B(  3-H , 10-Cl) :   0.3127 B(  8-Pb,  9-Cl) :   0.7540
B(  8-Pb, 10-Cl) :   0.4500 B(  8-Pb, 11-Cl) :   0.8090

MP2 TOTAL ENERGY:    -1669.519691356 Eh
Dispersion correction           -0.011779092
FINAL SINGLE POINT ENERGY     -1669.531470447844

DIPOLE MOMENT
-------------
                                X             Y             Z
Electronic contribution:    -18.79132     -66.81099      12.85828
Nuclear contribution   :     20.40845      72.68649     -10.91589
                        -----------------------------------------
Total Dipole Moment    :      1.61713       5.87550       1.94239
                        -----------------------------------------
Magnitude (a.u.)       :      6.39605
Magnitude (Debye)      :     16.25747

                             ****ORCA TERMINATED NORMALLY****
TOTAL RUN TIME: 0 days 0 hours 15 minutes 37 seconds 44 msec
