                         Program Version 3.0.3 - RELEASE   -
|  1> ! RIJCOSX RI-B2PLYP D3BJ def2-TZVP ECP{def2-TZVP} TIGHTSCF Grid5 FinalGrid6 SlowConv MORead
|  2> %method
|  3>  RunTyp Gradient
|  4>  end
|  5> %maxcore 1000
|  6> %moinp "previous.gbw"
|  7> *xyz 0 1
|  8> C 2.905719 3.576013 2.873338
|  9> N 2.134625 2.614408 2.046990
| 10> H 3.548796 3.021424 3.560517
| 11> H 2.209179 4.197444 3.440826
| 12> H 3.515705 4.204875 2.220874
| 13> H 1.516852 1.975028 2.601630
| 14> H 2.717740 1.973704 1.464858
| 15> H 1.486857 3.059076 1.361735
| 16> Pb 0.473460 0.131547 0.209487
| 17> Cl 2.339292 0.268387 0.089874
| 18> Cl 0.077890 2.735046 -0.108798
| 19> Cl 0.157014 0.320768 2.851419
| 20> *
| 21>
| 22>                          ****END OF INPUT****

CARTESIAN COORDINATES (ANGSTROEM)
---------------------------------
  C      2.905719    3.576013    2.873338
  N      2.134625    2.614408    2.046990
  H      3.548796    3.021424    3.560517
  H      2.209179    4.197444    3.440826
  H      3.515705    4.204875    2.220874
  H      1.516852    1.975028    2.601630
  H      2.717740    1.973704    1.464858
  H      1.486857    3.059076    1.361735
  Pb     0.473460    0.131547    0.209487
  Cl     2.339292    0.268387    0.089874
  Cl     0.077890    2.735046   -0.108798
  Cl     0.157014    0.320768    2.851419

 Total Charge           Charge          ....    0
 Multiplicity           Mult            ....    1
 Number of Electrons    NEL             ....   92
 Basis Dimension        Dim             ....  259

ORBITAL ENERGIES
----------------

  NO   OCC          E(Eh)            E(eV)
   0   2.0000    -102.916741     -2800.5069
   1   2.0000    -102.834521     -2798.2696
   2   2.0000    -102.832716     -2798.2204
   3   2.0000     -14.962427      -407.1483
   4   2.0000     -10.711172      -291.4658
   5   2.0000      -9.939011      -270.4542
   6   2.0000      -9.842244      -267.8211
   7   2.0000      -9.839770      -267.7538
   8   2.0000      -7.576930      -206.1787
   9   2.0000      -7.572060      -206.0462
  10   2.0000      -7.571901      -206.0419
  11   2.0000      -7.479124      -203.5173
  12   2.0000      -7.477861      -203.4829
  13   2.0000      -7.477334      -203.4686
  14   2.0000      -7.476682      -203.4508
  15   2.0000      -7.475438      -203.4170
  16   2.0000      -7.474898      -203.4023
  17   2.0000      -5.792572      -157.6239
  18   2.0000      -3.570599       -97.1609
  19   2.0000      -3.562907       -96.9516
  20   2.0000      -3.561961       -96.9259
  21   2.0000      -1.141822       -31.0705
  22   2.0000      -1.118548       -30.4372
  23   2.0000      -0.969086       -26.3702
  24   2.0000      -0.968350       -26.3501
  25   2.0000      -0.958630       -26.0857
  26   2.0000      -0.951555       -25.8931
  27   2.0000      -0.902372       -24.5548
  28   2.0000      -0.864346       -23.5201
  29   2.0000      -0.849786       -23.1238
  30   2.0000      -0.847306       -23.0564
  31   2.0000      -0.671365       -18.2688
  32   2.0000      -0.665629       -18.1127
  33   2.0000      -0.603009       -16.4087
  34   2.0000      -0.585698       -15.9376
  35   2.0000      -0.523717       -14.2511
  36   2.0000      -0.521730       -14.1970
  37   2.0000      -0.453447       -12.3389
  38   2.0000      -0.452703       -12.3187
  39   2.0000      -0.385290       -10.4843
  40   2.0000      -0.348694        -9.4884
  41   2.0000      -0.344600        -9.3771
  42   2.0000      -0.333655        -9.0792
  43   2.0000      -0.332006        -9.0343
  44   2.0000      -0.321895        -8.7592
  45   2.0000      -0.273639        -7.4461
  46   0.0000       0.021618         0.5883
  47   0.0000       0.026984         0.7343
  48   0.0000       0.035064         0.9541
  49   0.0000       0.073688         2.0051
  50   0.0000       0.089147         2.4258

Dispersion correction            ...

MULLIKEN ATOMIC CHARGES
-----------------------
   0 C :   -0.276066
   1 N :   -0.297782
   2 H :    0.160003
   3 H :    0.168721
   4 H :    0.159645
   5 H :    0.273243
   6 H :    0.271810
   7 H :    0.277527
   8 Pb:    0.710830
   9 Cl:   -0.349281
  10 Cl:   -0.551795
  11 Cl:   -0.546855
Sum of atomic charges:   -0.0000000

LOEWDIN ATOMIC CHARGES
----------------------
   0 C :   -0.289007
   1 N :    0.074836
   2 H :    0.126411
   3 H :    0.130592
   4 H :    0.125984
   5 H :    0.157622
   6 H :    0.167474
   7 H :    0.147040
   8 Pb:   -0.391157
   9 Cl:    0.297940
  10 Cl:   -0.264824
  11 Cl:   -0.282912

  Mayer bond orders larger than 0.1
B(  0-C ,  1-N ) :   0.8900 B(  0-C ,  2-H ) :   0.9526 B(  0-C ,  3-H ) :   0.9513
B(  0-C ,  4-H ) :   0.9522 B(  1-N ,  5-H ) :   0.7820 B(  1-N ,  6-H ) :   0.8497
B(  1-N ,  7-H ) :   0.7790 B(  5-H , 11-Cl) :   0.2079 B(  7-H , 10-Cl) :   0.2001
B(  8-Pb,  9-Cl) :   1.0646 B(  8-Pb, 10-Cl) :   0.5414 B(  8-Pb, 11-Cl) :   0.5550

MP2 TOTAL ENERGY:    -1669.432151505 Eh
Dispersion correction           -0.014319135
FINAL SINGLE POINT ENERGY     -1669.446470640914

DIPOLE MOMENT
-------------
                                X             Y             Z
Electronic contribution:    -53.91405     -98.96343     -75.00766
Nuclear contribution   :     56.44861      99.85676      75.48845
                        -----------------------------------------
Total Dipole Moment    :      2.53457       0.89333       0.48078
                        -----------------------------------------
Magnitude (a.u.)       :      2.73006
Magnitude (Debye)      :      6.93926

                             ****ORCA TERMINATED NORMALLY****
TOTAL RUN TIME: 0 days 0 hours 12 minutes 15 seconds 242 msec
