                         Program Version 3.0.3 - RELEASE   -
|  1> ! PW6B95 def2-TZVP GCP(DFT/TZ) ECP{def2-TZVP} Grid7 MORead
|  2> %pal nprocs 2 end
|  3> %method
|  4>  RunTyp Gradient
|  5>  end
|  6> %maxcore 2000
|  7> %moinp "previous.gbw"
|  8> *xyz 0 1
|  9> Pb 0.480533 0.250409 0.377517
| 10> Cl 2.735536 1.341519 -0.129731
| 11> Cl -0.623792 2.590685 0.573894
| 12> Cl 0.960050 0.202220 2.883170
| 13> Cs 2.879941 3.437137 2.529010
| 14> *
| 15>
| 16>                          ****END OF INPUT****

CARTESIAN COORDINATES (ANGSTROEM)
---------------------------------
  Pb     0.480533    0.250409    0.377517
  Cl     2.735536    1.341519   -0.129731
  Cl    -0.623792    2.590685    0.573894
  Cl     0.960050    0.202220    2.883170
  Cs     2.879941    3.437137    2.529010

 Total Charge           Charge          ....    0
 Multiplicity           Mult            ....    1
 Number of Electrons    NEL             ....   82
 Basis Dimension        Dim             ....  190

ORBITAL ENERGIES
----------------

  NO   OCC          E(Eh)            E(eV)
   0   2.0000    -101.859598     -2771.7406
   1   2.0000    -101.852819     -2771.5561
   2   2.0000    -101.841982     -2771.2612
   3   2.0000      -9.500732      -258.5281
   4   2.0000      -9.493514      -258.3317
   5   2.0000      -9.482238      -258.0248
   6   2.0000      -7.230215      -196.7441
   7   2.0000      -7.227864      -196.6802
   8   2.0000      -7.227507      -196.6705
   9   2.0000      -7.223116      -196.5510
  10   2.0000      -7.220640      -196.4836
  11   2.0000      -7.220248      -196.4729
  12   2.0000      -7.211969      -196.2476
  13   2.0000      -7.209330      -196.1758
  14   2.0000      -7.208970      -196.1660
  15   2.0000      -5.545011      -150.8874
  16   2.0000      -3.369195       -91.6805
  17   2.0000      -3.368754       -91.6685
  18   2.0000      -3.367209       -91.6264
  19   2.0000      -1.101749       -29.9801
  20   2.0000      -0.868565       -23.6349
  21   2.0000      -0.866118       -23.5683
  22   2.0000      -0.859578       -23.3903
  23   2.0000      -0.859105       -23.3774
  24   2.0000      -0.857873       -23.3439
  25   2.0000      -0.778346       -21.1799
  26   2.0000      -0.756725       -20.5915
  27   2.0000      -0.744499       -20.2589
  28   2.0000      -0.572458       -15.5774
  29   2.0000      -0.571703       -15.5568
  30   2.0000      -0.568954       -15.4820
  31   2.0000      -0.490777       -13.3547
  32   2.0000      -0.325796        -8.8654
  33   2.0000      -0.317954        -8.6520
  34   2.0000      -0.312760        -8.5106
  35   2.0000      -0.293897        -7.9973
  36   2.0000      -0.291660        -7.9365
  37   2.0000      -0.279345        -7.6014
  38   2.0000      -0.269578        -7.3356
  39   2.0000      -0.265927        -7.2363
  40   2.0000      -0.256628        -6.9832
  41   0.0000      -0.051669        -1.4060
  42   0.0000      -0.011318        -0.3080
  43   0.0000      -0.010353        -0.2817
  44   0.0000      -0.006567        -0.1787
  45   0.0000      -0.006045        -0.1645

MULLIKEN ATOMIC CHARGES
-----------------------
   0 Pb:    0.768997
   1 Cl:   -0.536355
   2 Cl:   -0.518035
   3 Cl:   -0.517770
   4 Cs:    0.803163
Sum of atomic charges:   -0.0000000

LOEWDIN ATOMIC CHARGES
----------------------
   0 Pb:    0.043985
   1 Cl:   -0.132086
   2 Cl:   -0.193916
   3 Cl:   -0.151984
   4 Cs:    0.434001

  Mayer bond orders larger than 0.1
B(  0-Pb,  1-Cl) :   0.6282 B(  0-Pb,  2-Cl) :   0.7131 B(  0-Pb,  3-Cl) :   0.6916
B(  1-Cl,  4-Cs) :   0.1583 B(  3-Cl,  4-Cs) :   0.1216

FINAL SINGLE POINT ENERGY     -1595.076928234672

DIPOLE MOMENT
-------------
                                X             Y             Z
Electronic contribution:     39.87130      27.77291      20.63251
Nuclear contribution   :    -37.56171     -25.74392     -19.15186
                        -----------------------------------------
Total Dipole Moment    :      2.30959       2.02899       1.48065
                        -----------------------------------------
Magnitude (a.u.)       :      3.41223
Magnitude (Debye)      :      8.67320

                             ****ORCA TERMINATED NORMALLY****
TOTAL RUN TIME: 0 days 0 hours 12 minutes 43 seconds 299 msec
