                         Program Version 3.0.3 - RELEASE   -
|  1> ! RIJCOSX RI-B2PLYP D3BJ def2-TZVP ECP{def2-TZVP} TIGHTSCF Grid5 FinalGrid6 SlowConv MORead
|  2> %method
|  3>  RunTyp Gradient
|  4>  end
|  5> %maxcore 1000
|  6> %moinp "previous.gbw"
|  7> *xyz 0 1
|  8> C -0.719476 0.723500 -0.861158
|  9> N -1.008380 1.472390 -2.093800
| 10> H -1.046130 2.537930 -1.894080
| 11> H -1.906610 1.206510 -2.564710
| 12> H -0.280987 1.300100 -2.635670
| 13> H -1.421670 0.965138 0.001940
| 14> H 0.293728 0.949756 -0.507504
| 15> H -0.840322 -0.353276 -1.150540
| 16> Pb -3.085260 -2.671110 -2.369510
| 17> Cl -0.872628 -3.929500 -2.396310
| 18> Cl -2.832030 -0.258896 -2.175880
| 19> Cl -4.783870 -3.599810 -0.881420
| 20> *
| 21>
| 22>                          ****END OF INPUT****

CARTESIAN COORDINATES (ANGSTROEM)
---------------------------------
  C     -0.719476    0.723500   -0.861158
  N     -1.008380    1.472390   -2.093800
  H     -1.046130    2.537930   -1.894080
  H     -1.906610    1.206510   -2.564710
  H     -0.280987    1.300100   -2.635670
  H     -1.421670    0.965138    0.001940
  H      0.293728    0.949756   -0.507504
  H     -0.840322   -0.353276   -1.150540
  Pb    -3.085260   -2.671110   -2.369510
  Cl    -0.872628   -3.929500   -2.396310
  Cl    -2.832030   -0.258896   -2.175880
  Cl    -4.783870   -3.599810   -0.881420

 Total Charge           Charge          ....    0
 Multiplicity           Mult            ....    1
 Number of Electrons    NEL             ....   92
 Basis Dimension        Dim             ....  259

ORBITAL ENERGIES
----------------

  NO   OCC          E(Eh)            E(eV)
   0   2.0000    -102.865314     -2799.1075
   1   2.0000    -102.816363     -2797.7755
   2   2.0000    -102.808865     -2797.5714
   3   2.0000     -15.006935      -408.3595
   4   2.0000     -10.725487      -291.8553
   5   2.0000      -9.878738      -268.8141
   6   2.0000      -9.824247      -267.3314
   7   2.0000      -9.816002      -267.1070
   8   2.0000      -7.515330      -204.5025
   9   2.0000      -7.513591      -204.4552
  10   2.0000      -7.513448      -204.4513
  11   2.0000      -7.461295      -203.0321
  12   2.0000      -7.459421      -202.9812
  13   2.0000      -7.459255      -202.9767
  14   2.0000      -7.452965      -202.8055
  15   2.0000      -7.451340      -202.7613
  16   2.0000      -7.451177      -202.7568
  17   2.0000      -5.763428      -156.8308
  18   2.0000      -3.536485       -96.2326
  19   2.0000      -3.534087       -96.1674
  20   2.0000      -3.532224       -96.1167
  21   2.0000      -1.204105       -32.7654
  22   2.0000      -0.958767       -26.0894
  23   2.0000      -0.937107       -25.5000
  24   2.0000      -0.931254       -25.3407
  25   2.0000      -0.924598       -25.1596
  26   2.0000      -0.923919       -25.1411
  27   2.0000      -0.901217       -24.5234
  28   2.0000      -0.873961       -23.7817
  29   2.0000      -0.835551       -22.7365
  30   2.0000      -0.821497       -22.3541
  31   2.0000      -0.747339       -20.3361
  32   2.0000      -0.712826       -19.3970
  33   2.0000      -0.622443       -16.9375
  34   2.0000      -0.545732       -14.8501
  35   2.0000      -0.531898       -14.4737
  36   2.0000      -0.524092       -14.2613
  37   2.0000      -0.396261       -10.7828
  38   2.0000      -0.387464       -10.5434
  39   2.0000      -0.376722       -10.2511
  40   2.0000      -0.345340        -9.3972
  41   2.0000      -0.320180        -8.7125
  42   2.0000      -0.314366        -8.5543
  43   2.0000      -0.306802        -8.3485
  44   2.0000      -0.304019        -8.2728
  45   2.0000      -0.234324        -6.3763
  46   0.0000      -0.018917        -0.5148
  47   0.0000      -0.001239        -0.0337
  48   0.0000       0.043042         1.1712
  49   0.0000       0.054880         1.4934
  50   0.0000       0.070836         1.9275

Dispersion correction            ...

MULLIKEN ATOMIC CHARGES
-----------------------
   0 C :   -0.293585
   1 N :   -0.264861
   2 H :    0.293159
   3 H :    0.296753
   4 H :    0.260481
   5 H :    0.180180
   6 H :    0.152950
   7 H :    0.195407
   8 Pb:    0.782693
   9 Cl:   -0.547020
  10 Cl:   -0.556735
  11 Cl:   -0.499422
Sum of atomic charges:    0.0000000

LOEWDIN ATOMIC CHARGES
----------------------
   0 C :   -0.353680
   1 N :    0.103267
   2 H :    0.223271
   3 H :    0.125946
   4 H :    0.151022
   5 H :    0.140658
   6 H :    0.119993
   7 H :    0.140608
   8 Pb:   -0.184061
   9 Cl:   -0.255446
  10 Cl:   -0.050121
  11 Cl:   -0.161456

  Mayer bond orders larger than 0.1
B(  0-C ,  1-N ) :   0.8703 B(  0-C ,  5-H ) :   0.9468 B(  0-C ,  6-H ) :   0.9337
B(  0-C ,  7-H ) :   0.9234 B(  1-N ,  2-H ) :   0.8649 B(  1-N ,  3-H ) :   0.7293
B(  1-N ,  4-H ) :   0.9085 B(  3-H , 10-Cl) :   0.2115 B(  8-Pb,  9-Cl) :   0.7050
B(  8-Pb, 10-Cl) :   0.4268 B(  8-Pb, 11-Cl) :   0.8029

MP2 TOTAL ENERGY:    -1669.509917456 Eh
Dispersion correction           -0.011748053
FINAL SINGLE POINT ENERGY     -1669.521665509058

DIPOLE MOMENT
-------------
                                X             Y             Z
Electronic contribution:    -52.50188     -72.35165     -41.30274
Nuclear contribution   :     54.73915      78.10809      40.90417
                        -----------------------------------------
Total Dipole Moment    :      2.23726       5.75644      -0.39857
                        -----------------------------------------
Magnitude (a.u.)       :      6.18877
Magnitude (Debye)      :     15.73059

                             ****ORCA TERMINATED NORMALLY****
TOTAL RUN TIME: 0 days 0 hours 14 minutes 46 seconds 140 msec
