                         Program Version 3.0.3 - RELEASE   -
|  1> ! RIJCOSX RI-B2PLYP D3BJ def2-TZVP ECP{def2-TZVP} TIGHTSCF Grid5 FinalGrid6 SlowConv MORead
|  2> %method
|  3>  RunTyp Gradient
|  4>  end
|  5> %maxcore 1000
|  6> %moinp "previous.gbw"
|  7> *xyz 0 1
|  8> C -3.449170 0.518443 -0.485748
|  9> N -2.927880 1.616260 -1.351820
| 10> H -3.743300 2.063110 -1.773140
| 11> H -2.410870 1.165080 -2.100950
| 12> H -2.357470 2.279140 -0.861231
| 13> H -4.111130 -0.194706 -1.028500
| 14> H -3.924520 0.802977 0.459927
| 15> H -2.608900 0.015295 -0.071594
| 16> Pb -2.913900 -2.654000 -2.362630
| 17> Cl -1.742880 -4.767790 -2.990980
| 18> Cl -2.069420 -0.437636 -3.065360
| 19> Cl -3.597260 -2.656700 0.045921
| 20> *
| 21>
| 22>                          ****END OF INPUT****

CARTESIAN COORDINATES (ANGSTROEM)
---------------------------------
  C     -3.449170    0.518443   -0.485748
  N     -2.927880    1.616260   -1.351820
  H     -3.743300    2.063110   -1.773140
  H     -2.410870    1.165080   -2.100950
  H     -2.357470    2.279140   -0.861231
  H     -4.111130   -0.194706   -1.028500
  H     -3.924520    0.802977    0.459927
  H     -2.608900    0.015295   -0.071594
  Pb    -2.913900   -2.654000   -2.362630
  Cl    -1.742880   -4.767790   -2.990980
  Cl    -2.069420   -0.437636   -3.065360
  Cl    -3.597260   -2.656700    0.045921

 Total Charge           Charge          ....    0
 Multiplicity           Mult            ....    1
 Number of Electrons    NEL             ....   92
 Basis Dimension        Dim             ....  259

ORBITAL ENERGIES
----------------

  NO   OCC          E(Eh)            E(eV)
   0   2.0000    -102.862259     -2799.0244
   1   2.0000    -102.828489     -2798.1055
   2   2.0000    -102.812797     -2797.6784
   3   2.0000     -15.010602      -408.4592
   4   2.0000     -10.713366      -291.5255
   5   2.0000      -9.872719      -268.6503
   6   2.0000      -9.836467      -267.6639
   7   2.0000      -9.820075      -267.2178
   8   2.0000      -7.509336      -204.3394
   9   2.0000      -7.507916      -204.3008
  10   2.0000      -7.507764      -204.2966
  11   2.0000      -7.473350      -203.3602
  12   2.0000      -7.471792      -203.3178
  13   2.0000      -7.471586      -203.3122
  14   2.0000      -7.457158      -202.9196
  15   2.0000      -7.455298      -202.8690
  16   2.0000      -7.455145      -202.8648
  17   2.0000      -5.771744      -157.0572
  18   2.0000      -3.544589       -96.4532
  19   2.0000      -3.542010       -96.3830
  20   2.0000      -3.540905       -96.3529
  21   2.0000      -1.193999       -32.4904
  22   2.0000      -0.953802       -25.9543
  23   2.0000      -0.943166       -25.6648
  24   2.0000      -0.940610       -25.5953
  25   2.0000      -0.932671       -25.3793
  26   2.0000      -0.932008       -25.3612
  27   2.0000      -0.890499       -24.2317
  28   2.0000      -0.876549       -23.8521
  29   2.0000      -0.846800       -23.0426
  30   2.0000      -0.826618       -22.4934
  31   2.0000      -0.738133       -20.0856
  32   2.0000      -0.720514       -19.6062
  33   2.0000      -0.623140       -16.9565
  34   2.0000      -0.549357       -14.9488
  35   2.0000      -0.533219       -14.5096
  36   2.0000      -0.509703       -13.8697
  37   2.0000      -0.395849       -10.7716
  38   2.0000      -0.379445       -10.3252
  39   2.0000      -0.373893       -10.1742
  40   2.0000      -0.352390        -9.5890
  41   2.0000      -0.332209        -9.0399
  42   2.0000      -0.328599        -8.9416
  43   2.0000      -0.310430        -8.4472
  44   2.0000      -0.307110        -8.3569
  45   2.0000      -0.241833        -6.5806
  46   0.0000      -0.014917        -0.4059
  47   0.0000      -0.007852        -0.2137
  48   0.0000       0.042932         1.1682
  49   0.0000       0.051416         1.3991
  50   0.0000       0.069908         1.9023

Dispersion correction            ...

MULLIKEN ATOMIC CHARGES
-----------------------
   0 C :   -0.354541
   1 N :   -0.253473
   2 H :    0.291272
   3 H :    0.269963
   4 H :    0.287462
   5 H :    0.193236
   6 H :    0.174980
   7 H :    0.187272
   8 Pb:    0.779681
   9 Cl:   -0.502630
  10 Cl:   -0.538575
  11 Cl:   -0.534646
Sum of atomic charges:   -0.0000000

LOEWDIN ATOMIC CHARGES
----------------------
   0 C :   -0.333508
   1 N :    0.123696
   2 H :    0.204850
   3 H :    0.113089
   4 H :    0.191204
   5 H :    0.137393
   6 H :    0.129819
   7 H :    0.125007
   8 Pb:   -0.153978
   9 Cl:   -0.191921
  10 Cl:   -0.143079
  11 Cl:   -0.202574

  Mayer bond orders larger than 0.1
B(  0-C ,  1-N ) :   0.8484 B(  0-C ,  5-H ) :   0.9308 B(  0-C ,  6-H ) :   0.9474
B(  0-C ,  7-H ) :   0.9448 B(  1-N ,  2-H ) :   0.8835 B(  1-N ,  3-H ) :   0.7469
B(  1-N ,  4-H ) :   0.8807 B(  3-H , 10-Cl) :   0.2490 B(  8-Pb,  9-Cl) :   0.7879
B(  8-Pb, 10-Cl) :   0.4732 B(  8-Pb, 11-Cl) :   0.6701

MP2 TOTAL ENERGY:    -1669.552851814 Eh
Dispersion correction           -0.012901542
FINAL SINGLE POINT ENERGY     -1669.565753355426

DIPOLE MOMENT
-------------
                                X             Y             Z
Electronic contribution:    -14.82570     -69.44266     -42.94564
Nuclear contribution   :     13.80435      75.12587      43.75751
                        -----------------------------------------
Total Dipole Moment    :     -1.02135       5.68322       0.81187
                        -----------------------------------------
Magnitude (a.u.)       :      5.83106
Magnitude (Debye)      :     14.82138

                             ****ORCA TERMINATED NORMALLY****
TOTAL RUN TIME: 0 days 0 hours 15 minutes 47 seconds 976 msec
