                         Program Version 3.0.3 - RELEASE   -
|  1> ! PW6B95 def2-TZVP GCP(DFT/TZ) ECP{def2-TZVP} Grid7 MORead
|  2> %pal nprocs 2 end
|  3> %method
|  4>  RunTyp Gradient
|  5>  end
|  6> %maxcore 2000
|  7> %moinp "previous.gbw"
|  8> *xyz 0 1
|  9> Pb 0.326140 0.273853 0.487130
| 10> Cl 2.848570 0.617112 -0.315348
| 11> Cl -0.266130 2.840843 0.073934
| 12> Cl 0.987065 0.815465 3.013516
| 13> Cs 3.978503 4.815578 3.479426
| 14> *
| 15>
| 16>                          ****END OF INPUT****

CARTESIAN COORDINATES (ANGSTROEM)
---------------------------------
  Pb     0.326140    0.273853    0.487130
  Cl     2.848570    0.617112   -0.315348
  Cl    -0.266130    2.840843    0.073934
  Cl     0.987065    0.815465    3.013516
  Cs     3.978503    4.815578    3.479426

 Total Charge           Charge          ....    0
 Multiplicity           Mult            ....    1
 Number of Electrons    NEL             ....   82
 Basis Dimension        Dim             ....  190

ORBITAL ENERGIES
----------------

  NO   OCC          E(Eh)            E(eV)
   0   2.0000    -101.812559     -2770.4606
   1   2.0000    -101.805441     -2770.2669
   2   2.0000    -101.805018     -2770.2554
   3   2.0000      -9.452507      -257.2158
   4   2.0000      -9.445246      -257.0182
   5   2.0000      -9.444834      -257.0070
   6   2.0000      -7.182275      -195.4396
   7   2.0000      -7.179562      -195.3658
   8   2.0000      -7.179357      -195.3602
   9   2.0000      -7.175108      -195.2446
  10   2.0000      -7.174710      -195.2338
  11   2.0000      -7.172207      -195.1657
  12   2.0000      -7.172095      -195.1626
  13   2.0000      -7.171786      -195.1542
  14   2.0000      -7.171674      -195.1512
  15   2.0000      -5.521299      -150.2422
  16   2.0000      -3.345214       -91.0279
  17   2.0000      -3.344780       -91.0161
  18   2.0000      -3.343509       -90.9815
  19   2.0000      -1.165234       -31.7076
  20   2.0000      -0.838866       -22.8267
  21   2.0000      -0.838134       -22.8068
  22   2.0000      -0.834415       -22.7056
  23   2.0000      -0.834275       -22.7018
  24   2.0000      -0.833076       -22.6692
  25   2.0000      -0.723927       -19.6991
  26   2.0000      -0.708902       -19.2902
  27   2.0000      -0.704872       -19.1805
  28   2.0000      -0.634033       -17.2529
  29   2.0000      -0.633923       -17.2499
  30   2.0000      -0.631566       -17.1858
  31   2.0000      -0.455707       -12.4004
  32   2.0000      -0.275110        -7.4861
  33   2.0000      -0.271596        -7.3905
  34   2.0000      -0.260918        -7.0999
  35   2.0000      -0.245236        -6.6732
  36   2.0000      -0.242835        -6.6079
  37   2.0000      -0.230147        -6.2626
  38   2.0000      -0.228585        -6.2201
  39   2.0000      -0.226385        -6.1603
  40   2.0000      -0.223330        -6.0771
  41   0.0000      -0.091332        -2.4853
  42   0.0000      -0.035454        -0.9647
  43   0.0000      -0.034574        -0.9408
  44   0.0000      -0.034523        -0.9394
  45   0.0000      -0.029724        -0.8088

MULLIKEN ATOMIC CHARGES
-----------------------
   0 Pb:    0.785168
   1 Cl:   -0.563226
   2 Cl:   -0.561733
   3 Cl:   -0.578621
   4 Cs:    0.918412
Sum of atomic charges:   -0.0000000

LOEWDIN ATOMIC CHARGES
----------------------
   0 Pb:    0.078705
   1 Cl:   -0.297924
   2 Cl:   -0.296140
   3 Cl:   -0.292834
   4 Cs:    0.808193

  Mayer bond orders larger than 0.1
B(  0-Pb,  1-Cl) :   0.6986 B(  0-Pb,  2-Cl) :   0.7014 B(  0-Pb,  3-Cl) :   0.6460

FINAL SINGLE POINT ENERGY     -1595.020040347559

DIPOLE MOMENT
-------------
                                X             Y             Z
Electronic contribution:     59.10158      68.75313      65.18002
Nuclear contribution   :    -55.00362     -63.84168     -61.15942
                        -----------------------------------------
Total Dipole Moment    :      4.09796       4.91145       4.02060
                        -----------------------------------------
Magnitude (a.u.)       :      7.55519
Magnitude (Debye)      :     19.20376

                             ****ORCA TERMINATED NORMALLY****
TOTAL RUN TIME: 0 days 0 hours 11 minutes 58 seconds 992 msec
