                         Program Version 3.0.3 - RELEASE   -
|  1> ! PW6B95 def2-TZVP GCP(DFT/TZ) ECP{def2-TZVP} Grid7 MORead
|  2> %pal nprocs 2 end
|  3> %method
|  4>  RunTyp Gradient
|  5>  end
|  6> %maxcore 2000
|  7> %moinp "previous.gbw"
|  8> *xyz 0 1
|  9> Pb 0.441128 0.397747 0.258369
| 10> Cl 2.960568 0.259935 0.876097
| 11> Cl 0.525427 2.977691 0.172783
| 12> Cl -0.173783 0.521255 2.744954
| 13> Cs 3.684975 4.472059 3.279305
| 14> *
| 15>
| 16>                          ****END OF INPUT****

CARTESIAN COORDINATES (ANGSTROEM)
---------------------------------
  Pb     0.441128    0.397747    0.258369
  Cl     2.960568    0.259935    0.876097
  Cl     0.525427    2.977691    0.172783
  Cl    -0.173783    0.521255    2.744954
  Cs     3.684975    4.472059    3.279305

 Total Charge           Charge          ....    0
 Multiplicity           Mult            ....    1
 Number of Electrons    NEL             ....   82
 Basis Dimension        Dim             ....  190

ORBITAL ENERGIES
----------------

  NO   OCC          E(Eh)            E(eV)
   0   2.0000    -101.820728     -2770.6829
   1   2.0000    -101.816486     -2770.5674
   2   2.0000    -101.811689     -2770.4369
   3   2.0000      -9.461226      -257.4531
   4   2.0000      -9.456847      -257.3339
   5   2.0000      -9.452142      -257.2059
   6   2.0000      -7.190921      -195.6749
   7   2.0000      -7.188276      -195.6029
   8   2.0000      -7.188017      -195.5959
   9   2.0000      -7.186570      -195.5565
  10   2.0000      -7.183880      -195.4833
  11   2.0000      -7.183651      -195.4771
  12   2.0000      -7.182002      -195.4322
  13   2.0000      -7.179016      -195.3509
  14   2.0000      -7.178912      -195.3481
  15   2.0000      -5.516042      -150.0991
  16   2.0000      -3.340160       -90.8904
  17   2.0000      -3.339929       -90.8841
  18   2.0000      -3.338005       -90.8317
  19   2.0000      -1.153591       -31.3908
  20   2.0000      -0.837387       -22.7864
  21   2.0000      -0.836681       -22.7672
  22   2.0000      -0.830375       -22.5957
  23   2.0000      -0.829801       -22.5800
  24   2.0000      -0.828382       -22.5414
  25   2.0000      -0.738908       -20.1067
  26   2.0000      -0.718853       -19.5610
  27   2.0000      -0.713271       -19.4091
  28   2.0000      -0.622748       -16.9458
  29   2.0000      -0.622415       -16.9368
  30   2.0000      -0.619563       -16.8592
  31   2.0000      -0.458899       -12.4873
  32   2.0000      -0.288052        -7.8383
  33   2.0000      -0.283727        -7.7206
  34   2.0000      -0.274270        -7.4633
  35   2.0000      -0.256449        -6.9783
  36   2.0000      -0.255013        -6.9393
  37   2.0000      -0.240821        -6.5531
  38   2.0000      -0.235494        -6.4081
  39   2.0000      -0.234027        -6.3682
  40   2.0000      -0.226367        -6.1598
  41   0.0000      -0.083578        -2.2743
  42   0.0000      -0.029422        -0.8006
  43   0.0000      -0.029108        -0.7921
  44   0.0000      -0.028765        -0.7827
  45   0.0000      -0.021432        -0.5832

MULLIKEN ATOMIC CHARGES
-----------------------
   0 Pb:    0.766022
   1 Cl:   -0.560352
   2 Cl:   -0.561689
   3 Cl:   -0.536088
   4 Cs:    0.892107
Sum of atomic charges:   -0.0000000

LOEWDIN ATOMIC CHARGES
----------------------
   0 Pb:   -0.024132
   1 Cl:   -0.249264
   2 Cl:   -0.236129
   3 Cl:   -0.231056
   4 Cs:    0.740580

  Mayer bond orders larger than 0.1
B(  0-Pb,  1-Cl) :   0.6738 B(  0-Pb,  2-Cl) :   0.6599 B(  0-Pb,  3-Cl) :   0.7396

FINAL SINGLE POINT ENERGY     -1595.034027507410

DIPOLE MOMENT
-------------
                                X             Y             Z
Electronic contribution:     58.85195      72.57480      30.84499
Nuclear contribution   :    -55.04426     -67.79547     -28.13987
                        -----------------------------------------
Total Dipole Moment    :      3.80769       4.77933       2.70512
                        -----------------------------------------
Magnitude (a.u.)       :      6.68268
Magnitude (Debye)      :     16.98602

                             ****ORCA TERMINATED NORMALLY****
TOTAL RUN TIME: 0 days 0 hours 12 minutes 18 seconds 805 msec
