                         Program Version 3.0.3 - RELEASE   -
|  1> ! RIJCOSX RI-B2PLYP D3BJ def2-TZVP ECP{def2-TZVP} TIGHTSCF Grid5 FinalGrid6 MORead
|  2> %maxcore 4000
|  3> %moinp "previous.gbw"
|  4> *xyz -1 1
|  5> C 3.321334 3.304660 2.430157
|  6> N 2.356571 2.328752 1.891132
|  7> H 3.929482 2.825089 3.202898
|  8> H 2.779051 4.148026 2.867131
|  9> H 3.970752 3.667461 1.628343
| 10> H 1.712427 1.919960 2.626954
| 11> H 2.798301 1.476145 1.466883
| 12> H 1.726191 2.717573 1.143366
| 13> Pb -0.050002 -0.139880 0.662706
| 14> Cl 2.784973 -0.579564 0.778847
| 15> Cl 0.270982 2.935126 -0.239879
| 16> Cl 0.307350 0.657789 3.449542
| 17> Cl -3.267458 -0.356938 -0.093605
| 18> Cl -0.024867 -1.188773 -2.202878
| 19> Cl -0.556537 -2.819831 1.890641
| 20> N -2.185808 -3.054212 -0.959335
| 21> C -3.018599 -3.892984 -1.852407
| 22> H -2.697680 -2.199715 -0.614166
| 23> H -1.345672 -2.675212 -1.453465
| 24> H -3.863008 -4.284793 -1.282203
| 25> H -2.403708 -4.719219 -2.215644
| 26> H -3.366846 -3.277457 -2.686457
| 27> H -1.855008 -3.591944 -0.148281
| 28> Cl 3.371172 -4.756666 1.520770
| 29> Cl 1.020369 -5.241506 4.923231
| 30> Pb 0.254607 -5.483799 1.507615
| 31> N 2.161285 -2.658962 3.515767
| 32> C 3.006676 -1.740565 4.311813
| 33> H 2.698023 -3.156655 2.770259
| 34> H 1.390718 -2.163400 3.045648
| 35> H 3.799912 -2.319606 4.793333
| 36> H 2.384520 -1.246095 5.060700
| 37> H 3.427402 -0.991699 3.638613
| 38> H 1.731703 -3.427574 4.095222
| 39> Cl 0.426219 -5.349829 -1.228693
| 40> H -2.444419 -8.567556 -2.232135
| 41> H -0.598109 -7.323819 -1.165277
| 42> H -1.004862 -9.612620 -2.073837
| 43> C -1.775778 -9.065444 -1.523604
| 44> N -1.147567 -8.055720 -0.651573
| 45> Cl -2.469340 -6.019963 1.044159
| 46> H -1.842497 -7.478800 -0.094428
| 47> H -0.483324 -8.457680 0.056334
| 48> H -2.352281 -9.766255 -0.913124
| 49> Cl 0.817581 -8.698782 1.684072
| 50> H -3.020852 1.137851 -3.759427
| 51> H -2.443836 0.935457 -1.388789
| 52> C -2.421148 1.915242 -3.276964
| 53> H -3.072919 2.741318 -2.978333
| 54> N -1.760461 1.345922 -2.088558
| 55> H -1.130632 0.530708 -2.323343
| 56> H -1.666594 2.281032 -3.979276
| 57> H -1.165922 2.035435 -1.571092
| 58> H 3.622704 -8.508951 4.939340
| 59> H 2.344608 -7.817453 2.937850
| 60> C 4.032137 -7.791101 4.222778
| 61> H 4.696529 -8.309487 3.525223
| 62> N 2.932785 -7.146076 3.481813
| 63> H 2.277052 -6.592786 4.110347
| 64> H 4.597499 -7.025510 4.762093
| 65> H 3.269849 -6.425562 2.787786
| 66> *
| 67>
| 68>                          ****END OF INPUT****

CARTESIAN COORDINATES (ANGSTROEM)
---------------------------------
  C      3.321334    3.304660    2.430157
  N      2.356571    2.328752    1.891132
  H      3.929482    2.825089    3.202898
  H      2.779051    4.148026    2.867131
  H      3.970752    3.667461    1.628343
  H      1.712427    1.919960    2.626954
  H      2.798301    1.476145    1.466883
  H      1.726191    2.717573    1.143366
  Pb    -0.050002   -0.139880    0.662706
  Cl     2.784973   -0.579564    0.778847
  Cl     0.270982    2.935126   -0.239879
  Cl     0.307350    0.657789    3.449542
  Cl    -3.267458   -0.356938   -0.093605
  Cl    -0.024867   -1.188773   -2.202878
  Cl    -0.556537   -2.819831    1.890641
  N     -2.185808   -3.054212   -0.959335
  C     -3.018599   -3.892984   -1.852407
  H     -2.697680   -2.199715   -0.614166
  H     -1.345672   -2.675212   -1.453465
  H     -3.863008   -4.284793   -1.282203
  H     -2.403708   -4.719219   -2.215644
  H     -3.366846   -3.277457   -2.686457
  H     -1.855008   -3.591944   -0.148281
  Cl     3.371172   -4.756666    1.520770
  Cl     1.020369   -5.241506    4.923231
  Pb     0.254607   -5.483799    1.507615
  N      2.161285   -2.658962    3.515767
  C      3.006676   -1.740565    4.311813
  H      2.698023   -3.156655    2.770259
  H      1.390718   -2.163400    3.045648
  H      3.799912   -2.319606    4.793333
  H      2.384520   -1.246095    5.060700
  H      3.427402   -0.991699    3.638613
  H      1.731703   -3.427574    4.095222
  Cl     0.426219   -5.349829   -1.228693
  H     -2.444419   -8.567556   -2.232135
  H     -0.598109   -7.323819   -1.165277
  H     -1.004862   -9.612620   -2.073837
  C     -1.775778   -9.065444   -1.523604
  N     -1.147567   -8.055720   -0.651573
  Cl    -2.469340   -6.019963    1.044159
  H     -1.842497   -7.478800   -0.094428
  H     -0.483324   -8.457680    0.056334
  H     -2.352281   -9.766255   -0.913124
  Cl     0.817581   -8.698782    1.684072
  H     -3.020852    1.137851   -3.759427
  H     -2.443836    0.935457   -1.388789
  C     -2.421148    1.915242   -3.276964
  H     -3.072919    2.741318   -2.978333
  N     -1.760461    1.345922   -2.088558
  H     -1.130632    0.530708   -2.323343
  H     -1.666594    2.281032   -3.979276
  H     -1.165922    2.035435   -1.571092
  H      3.622704   -8.508951    4.939340
  H      2.344608   -7.817453    2.937850
  C      4.032137   -7.791101    4.222778
  H      4.696529   -8.309487    3.525223
  N      2.932785   -7.146076    3.481813
  H      2.277052   -6.592786    4.110347
  H      4.597499   -7.025510    4.762093
  H      3.269849   -6.425562    2.787786

 Total Charge           Charge          ....   -1
 Multiplicity           Mult            ....    1
 Number of Electrons    NEL             ....  346
 Basis Dimension        Dim             .... 1095

ORBITAL ENERGIES
----------------

  NO   OCC          E(Eh)            E(eV)
   0   2.0000    -102.754163     -2796.0829
   1   2.0000    -102.742306     -2795.7603
   2   2.0000    -102.739175     -2795.6751
   3   2.0000    -102.737478     -2795.6289
   4   2.0000    -102.730244     -2795.4321
   5   2.0000    -102.730038     -2795.4264
   6   2.0000    -102.729832     -2795.4208
   7   2.0000    -102.729573     -2795.4138
   8   2.0000    -102.725605     -2795.3058
   9   2.0000    -102.711525     -2794.9227
  10   2.0000    -102.710334     -2794.8903
  11   2.0000     -14.844890      -403.9500
  12   2.0000     -14.841298      -403.8523
  13   2.0000     -14.840440      -403.8289
  14   2.0000     -14.828952      -403.5163
  15   2.0000     -14.828294      -403.4984
  16   2.0000     -14.822197      -403.3325
  17   2.0000     -10.615599      -288.8651
  18   2.0000     -10.612606      -288.7837
  19   2.0000     -10.610382      -288.7232
  20   2.0000     -10.599906      -288.4381
  21   2.0000     -10.585417      -288.0438
  22   2.0000     -10.575627      -287.7774
  23   2.0000      -9.761620      -265.6272
  24   2.0000      -9.749924      -265.3089
  25   2.0000      -9.746381      -265.2125
  26   2.0000      -9.744175      -265.1525
  27   2.0000      -9.737414      -264.9685
  28   2.0000      -9.737259      -264.9643
  29   2.0000      -9.736599      -264.9463
  30   2.0000      -9.736314      -264.9386
  31   2.0000      -9.732551      -264.8362
  32   2.0000      -9.718388      -264.4508
  33   2.0000      -9.717326      -264.4219
  34   2.0000      -7.398419      -201.3212
  35   2.0000      -7.397132      -201.2862
  36   2.0000      -7.397047      -201.2839
  37   2.0000      -7.386432      -200.9950
  38   2.0000      -7.385830      -200.9786
  39   2.0000      -7.385279      -200.9636
  40   2.0000      -7.382743      -200.8946
  41   2.0000      -7.382572      -200.8900
  42   2.0000      -7.381866      -200.8708
  43   2.0000      -7.381059      -200.8488
  44   2.0000      -7.379862      -200.8163
  45   2.0000      -7.379475      -200.8057
  46   2.0000      -7.373702      -200.6486
  47   2.0000      -7.373486      -200.6428
  48   2.0000      -7.373432      -200.6413
  49   2.0000      -7.373349      -200.6390
  50   2.0000      -7.373336      -200.6387
  51   2.0000      -7.373124      -200.6329
  52   2.0000      -7.372865      -200.6258
  53   2.0000      -7.372855      -200.6256
  54   2.0000      -7.372393      -200.6130
  55   2.0000      -7.372277      -200.6099
  56   2.0000      -7.371946      -200.6009
  57   2.0000      -7.371773      -200.5962
  58   2.0000      -7.368964      -200.5197
  59   2.0000      -7.368697      -200.5124
  60   2.0000      -7.368119      -200.4967
  61   2.0000      -7.354562      -200.1278
  62   2.0000      -7.354514      -200.1265
  63   2.0000      -7.354124      -200.1159
  64   2.0000      -7.353641      -200.1027
  65   2.0000      -7.353235      -200.0917
  66   2.0000      -7.353183      -200.0903
  67   2.0000      -5.712354      -155.4410
  68   2.0000      -5.699826      -155.1001
  69   2.0000      -3.483680       -94.7958
  70   2.0000      -3.481983       -94.7496
  71   2.0000      -3.481885       -94.7469
  72   2.0000      -3.470858       -94.4468
  73   2.0000      -3.469920       -94.4213
  74   2.0000      -3.469393       -94.4070
  75   2.0000      -1.027258       -27.9531
  76   2.0000      -1.023749       -27.8576
  77   2.0000      -1.023206       -27.8428
  78   2.0000      -1.010049       -27.4848
  79   2.0000      -1.009625       -27.4733
  80   2.0000      -1.001210       -27.2443
  81   2.0000      -0.873488       -23.7688
  82   2.0000      -0.871417       -23.7125
  83   2.0000      -0.870910       -23.6987
  84   2.0000      -0.870205       -23.6795
  85   2.0000      -0.868651       -23.6372
  86   2.0000      -0.863038       -23.4845
  87   2.0000      -0.861516       -23.4430
  88   2.0000      -0.858714       -23.3668
  89   2.0000      -0.857866       -23.3437
  90   2.0000      -0.856992       -23.3199
  91   2.0000      -0.778600       -21.1868
  92   2.0000      -0.771981       -21.0067
  93   2.0000      -0.769673       -20.9439
  94   2.0000      -0.764557       -20.8047
  95   2.0000      -0.756901       -20.5963
  96   2.0000      -0.756210       -20.5775
  97   2.0000      -0.753085       -20.4925
  98   2.0000      -0.751394       -20.4465
  99   2.0000      -0.750201       -20.4140
 100   2.0000      -0.746084       -20.3020
 101   2.0000      -0.743516       -20.2321
 102   2.0000      -0.742502       -20.2045
 103   2.0000      -0.741582       -20.1795
 104   2.0000      -0.731531       -19.9060
 105   2.0000      -0.730870       -19.8880
 106   2.0000      -0.729044       -19.8383
 107   2.0000      -0.718544       -19.5526
 108   2.0000      -0.560219       -15.2443
 109   2.0000      -0.559152       -15.2153
 110   2.0000      -0.553540       -15.0626
 111   2.0000      -0.553282       -15.0556
 112   2.0000      -0.550526       -14.9806
 113   2.0000      -0.549641       -14.9565
 114   2.0000      -0.548102       -14.9146
 115   2.0000      -0.544157       -14.8073
 116   2.0000      -0.536871       -14.6090
 117   2.0000      -0.536646       -14.6029
 118   2.0000      -0.534762       -14.5516
 119   2.0000      -0.525671       -14.3042
 120   2.0000      -0.498432       -13.5630
 121   2.0000      -0.495171       -13.4743
 122   2.0000      -0.492840       -13.4109
 123   2.0000      -0.480323       -13.0702
 124   2.0000      -0.467276       -12.7152
 125   2.0000      -0.460313       -12.5258
 126   2.0000      -0.451045       -12.2736
 127   2.0000      -0.436956       -11.8902
 128   2.0000      -0.423500       -11.5240
 129   2.0000      -0.421910       -11.4807
 130   2.0000      -0.421664       -11.4741
 131   2.0000      -0.418138       -11.3781
 132   2.0000      -0.417578       -11.3629
 133   2.0000      -0.416824       -11.3423
 134   2.0000      -0.407400       -11.0859
 135   2.0000      -0.405123       -11.0240
 136   2.0000      -0.400657       -10.9024
 137   2.0000      -0.394923       -10.7464
 138   2.0000      -0.391036       -10.6406
 139   2.0000      -0.384495       -10.4626
 140   2.0000      -0.284265        -7.7352
 141   2.0000      -0.273111        -7.4317
 142   2.0000      -0.268666        -7.3108
 143   2.0000      -0.263554        -7.1717
 144   2.0000      -0.258454        -7.0329
 145   2.0000      -0.256239        -6.9726
 146   2.0000      -0.253555        -6.8996
 147   2.0000      -0.249189        -6.7808
 148   2.0000      -0.246442        -6.7060
 149   2.0000      -0.242797        -6.6068
 150   2.0000      -0.241801        -6.5797
 151   2.0000      -0.240183        -6.5357
 152   2.0000      -0.239180        -6.5084
 153   2.0000      -0.237125        -6.4525
 154   2.0000      -0.236197        -6.4272
 155   2.0000      -0.233656        -6.3581
 156   2.0000      -0.232543        -6.3278
 157   2.0000      -0.230714        -6.2780
 158   2.0000      -0.229804        -6.2533
 159   2.0000      -0.228019        -6.2047
 160   2.0000      -0.227265        -6.1842
 161   2.0000      -0.226955        -6.1758
 162   2.0000      -0.225263        -6.1297
 163   2.0000      -0.224137        -6.0991
 164   2.0000      -0.223265        -6.0754
 165   2.0000      -0.218914        -5.9569
 166   2.0000      -0.216293        -5.8856
 167   2.0000      -0.215731        -5.8703
 168   2.0000      -0.213296        -5.8041
 169   2.0000      -0.212884        -5.7929
 170   2.0000      -0.207084        -5.6350
 171   2.0000      -0.194954        -5.3050
 172   2.0000      -0.183508        -4.9935
 173   0.0000       0.092014         2.5038
 174   0.0000       0.108552         2.9538
 175   0.0000       0.120057         3.2669
 176   0.0000       0.123437         3.3589
 177   0.0000       0.124126         3.3776

MULLIKEN ATOMIC CHARGES
-----------------------
   0 C :   -0.251261
   1 N :   -0.289902
   2 H :    0.137836
   3 H :    0.140888
   4 H :    0.139897
   5 H :    0.271745
   6 H :    0.263787
   7 H :    0.285281
   8 Pb:    0.997996
   9 Cl:   -0.616514
  10 Cl:   -0.708036
  11 Cl:   -0.652659
  12 Cl:   -0.690224
  13 Cl:   -0.657919
  14 Cl:   -0.603404
  15 N :   -0.278279
  16 C :   -0.241626
  17 H :    0.281859
  18 H :    0.303038
  19 H :    0.145062
  20 H :    0.136943
  21 H :    0.122298
  22 H :    0.290369
  23 Cl:   -0.683761
  24 Cl:   -0.711182
  25 Pb:    0.984176
  26 N :   -0.276909
  27 C :   -0.233971
  28 H :    0.294720
  29 H :    0.298933
  30 H :    0.120324
  31 H :    0.145711
  32 H :    0.135945
  33 H :    0.272452
  34 Cl:   -0.599343
  35 H :    0.135058
  36 H :    0.264278
  37 H :    0.141724
  38 C :   -0.250197
  39 N :   -0.294547
  40 Cl:   -0.632502
  41 H :    0.283966
  42 H :    0.278859
  43 H :    0.143443
  44 Cl:   -0.721509
  45 H :    0.137859
  46 H :    0.276047
  47 C :   -0.245835
  48 H :    0.137765
  49 N :   -0.288398
  50 H :    0.261425
  51 H :    0.140166
  52 H :    0.273889
  53 H :    0.136300
  54 H :    0.272447
  55 C :   -0.242774
  56 H :    0.135918
  57 N :   -0.280926
  58 H :    0.271696
  59 H :    0.136261
  60 H :    0.255316
Sum of atomic charges:   -1.0000000

LOEWDIN ATOMIC CHARGES
----------------------
   0 C :   -0.297602
   1 N :    0.063674
   2 H :    0.118045
   3 H :    0.119131
   4 H :    0.118087
   5 H :    0.150142
   6 H :    0.155964
   7 H :    0.141258
   8 Pb:    0.128669
   9 Cl:   -0.378852
  10 Cl:   -0.503957
  11 Cl:   -0.419696
  12 Cl:   -0.483689
  13 Cl:   -0.423090
  14 Cl:   -0.173321
  15 N :    0.087974
  16 C :   -0.303124
  17 H :    0.137663
  18 H :    0.155100
  19 H :    0.116457
  20 H :    0.112641
  21 H :    0.112579
  22 H :    0.173707
  23 Cl:   -0.486150
  24 Cl:   -0.552567
  25 Pb:    0.051041
  26 N :    0.090646
  27 C :   -0.301831
  28 H :    0.153851
  29 H :    0.172057
  30 H :    0.111928
  31 H :    0.117096
  32 H :    0.111286
  33 H :    0.150640
  34 Cl:   -0.329082
  35 H :    0.117037
  36 H :    0.162089
  37 H :    0.118546
  38 C :   -0.297226
  39 N :    0.064507
  40 Cl:   -0.345827
  41 H :    0.138224
  42 H :    0.149560
  43 H :    0.120107
  44 Cl:   -0.538631
  45 H :    0.119353
  46 H :    0.140614
  47 C :   -0.297586
  48 H :    0.117651
  49 N :    0.060907
  50 H :    0.143995
  51 H :    0.118705
  52 H :    0.152207
  53 H :    0.117411
  54 H :    0.151969
  55 C :   -0.298936
  56 H :    0.116918
  57 N :    0.064715
  58 H :    0.140904
  59 H :    0.118735
  60 H :    0.147377

  Mayer bond orders larger than 0.1
B(  0-C ,  1-N ) :   0.9344 B(  0-C ,  2-H ) :   0.9748 B(  0-C ,  3-H ) :   0.9746
B(  0-C ,  4-H ) :   0.9744 B(  1-N ,  5-H ) :   0.7884 B(  1-N ,  6-H ) :   0.8114
B(  1-N ,  7-H ) :   0.7971 B(  5-H , 11-Cl) :   0.2230 B(  6-H ,  9-Cl) :   0.1981
B(  7-H , 10-Cl) :   0.1873 B(  8-Pb,  9-Cl) :   0.4616 B(  8-Pb, 10-Cl) :   0.2015
B(  8-Pb, 11-Cl) :   0.3716 B(  8-Pb, 12-Cl) :   0.1629 B(  8-Pb, 13-Cl) :   0.2702
B(  8-Pb, 14-Cl) :   0.2498 B( 10-Cl, 52-H ) :   0.1597 B( 12-Cl, 17-H ) :   0.2049
B( 12-Cl, 46-H ) :   0.2280 B( 13-Cl, 18-H ) :   0.1326 B( 13-Cl, 50-H ) :   0.2433
B( 14-Cl, 25-Pb) :   0.3305 B( 15-N , 16-C ) :   0.9329 B( 15-N , 17-H ) :   0.7900
B( 15-N , 18-H ) :   0.8208 B( 15-N , 22-H ) :   0.8711 B( 16-C , 19-H ) :   0.9709
B( 16-C , 20-H ) :   0.9680 B( 16-C , 21-H ) :   0.9710 B( 23-Cl, 25-Pb) :   0.2151
B( 23-Cl, 28-H ) :   0.1540 B( 23-Cl, 60-H ) :   0.2383 B( 24-Cl, 25-Pb) :   0.1238
B( 24-Cl, 33-H ) :   0.1957 B( 24-Cl, 58-H ) :   0.2483 B( 25-Pb, 34-Cl) :   0.5084
B( 25-Pb, 40-Cl) :   0.3796 B( 25-Pb, 44-Cl) :   0.1748 B( 26-N , 27-C ) :   0.9293
B( 26-N , 28-H ) :   0.8162 B( 26-N , 29-H ) :   0.8664 B( 26-N , 33-H ) :   0.8075
B( 27-C , 30-H ) :   0.9715 B( 27-C , 31-H ) :   0.9705 B( 27-C , 32-H ) :   0.9659
B( 34-Cl, 36-H ) :   0.1761 B( 35-H , 38-C ) :   0.9750 B( 36-H , 39-N ) :   0.8248
B( 37-H , 38-C ) :   0.9740 B( 38-C , 39-N ) :   0.9323 B( 38-C , 43-H ) :   0.9744
B( 39-N , 41-H ) :   0.7708 B( 39-N , 42-H ) :   0.8008 B( 40-Cl, 41-H ) :   0.2289
B( 42-H , 44-Cl) :   0.1950 B( 44-Cl, 54-H ) :   0.1609 B( 45-H , 47-C ) :   0.9744
B( 46-H , 49-N ) :   0.7784 B( 47-C , 48-H ) :   0.9755 B( 47-C , 49-N ) :   0.9369
B( 47-C , 51-H ) :   0.9746 B( 49-N , 50-H ) :   0.7841 B( 49-N , 52-H ) :   0.8232
B( 53-H , 55-C ) :   0.9756 B( 54-H , 57-N ) :   0.8255 B( 55-C , 56-H ) :   0.9748
B( 55-C , 57-N ) :   0.9378 B( 55-C , 59-H ) :   0.9747 B( 57-N , 58-H ) :   0.7710
B( 57-N , 60-H ) :   0.7919

MP2 TOTAL ENERGY:    -6025.863818270 Eh
Dispersion correction           -0.080352321
FINAL SINGLE POINT ENERGY     -6025.944170590655

DIPOLE MOMENT
-------------
                                X             Y             Z
Electronic contribution:    -45.14173      10.43372      27.76297
Nuclear contribution   :     45.44506     -10.08614     -29.60574
                        -----------------------------------------
Total Dipole Moment    :      0.30333       0.34758      -1.84277
                        -----------------------------------------
Magnitude (a.u.)       :      1.89964
Magnitude (Debye)      :      4.82850

                             ****ORCA TERMINATED NORMALLY****
TOTAL RUN TIME: 0 days 1 hours 37 minutes 54 seconds 996 msec
