                         Program Version 3.0.3 - RELEASE   -
|  1> ! RIJCOSX RI-B2PLYP D3BJ def2-TZVP ECP{def2-TZVP} TIGHTSCF Grid5 FinalGrid6 SlowConv MORead
|  2> %method
|  3>  RunTyp Gradient
|  4>  end
|  5> %maxcore 1000
|  6> %moinp "previous.gbw"
|  7> *xyz 0 1
|  8> C -0.328561 -0.015159 -1.840040
|  9> N 0.062558 -0.610120 -0.489830
| 10> H -0.495321 -1.286060 -0.318890
| 11> H -0.165701 0.166853 0.209305
| 12> H 1.138090 -0.877757 -0.534442
| 13> H -1.200960 0.536846 -1.646990
| 14> H -0.331812 -0.779165 -2.642290
| 15> H 0.409249 0.749679 -2.122780
| 16> Pb -3.109580 -2.561810 -2.339170
| 17> Cl -0.787446 -3.183300 -1.664170
| 18> Cl -3.393050 -0.360085 -3.365130
| 19> Cl -4.851240 -3.580060 -0.952145
| 20> *
| 21>
| 22>                          ****END OF INPUT****

CARTESIAN COORDINATES (ANGSTROEM)
---------------------------------
  C     -0.328561   -0.015159   -1.840040
  N      0.062558   -0.610120   -0.489830
  H     -0.495321   -1.286060   -0.318890
  H     -0.165701    0.166853    0.209305
  H      1.138090   -0.877757   -0.534442
  H     -1.200960    0.536846   -1.646990
  H     -0.331812   -0.779165   -2.642290
  H      0.409249    0.749679   -2.122780
  Pb    -3.109580   -2.561810   -2.339170
  Cl    -0.787446   -3.183300   -1.664170
  Cl    -3.393050   -0.360085   -3.365130
  Cl    -4.851240   -3.580060   -0.952145

 Total Charge           Charge          ....    0
 Multiplicity           Mult            ....    1
 Number of Electrons    NEL             ....   92
 Basis Dimension        Dim             ....  259

ORBITAL ENERGIES
----------------

  NO   OCC          E(Eh)            E(eV)
   0   2.0000    -102.844144     -2798.5314
   1   2.0000    -102.824283     -2797.9910
   2   2.0000    -102.811307     -2797.6379
   3   2.0000     -15.033524      -409.0830
   4   2.0000     -10.727147      -291.9005
   5   2.0000      -9.853468      -268.1265
   6   2.0000      -9.833006      -267.5697
   7   2.0000      -9.819433      -267.2004
   8   2.0000      -7.489896      -203.8104
   9   2.0000      -7.488964      -203.7851
  10   2.0000      -7.488576      -203.7745
  11   2.0000      -7.469612      -203.2585
  12   2.0000      -7.468358      -203.2243
  13   2.0000      -7.468105      -203.2175
  14   2.0000      -7.456223      -202.8942
  15   2.0000      -7.454740      -202.8538
  16   2.0000      -7.454489      -202.8470
  17   2.0000      -5.761930      -156.7901
  18   2.0000      -3.535458       -96.2047
  19   2.0000      -3.532216       -96.1165
  20   2.0000      -3.530755       -96.0767
  21   2.0000      -1.205825       -32.8122
  22   2.0000      -0.940163       -25.5831
  23   2.0000      -0.936984       -25.4966
  24   2.0000      -0.934737       -25.4355
  25   2.0000      -0.924721       -25.1629
  26   2.0000      -0.923495       -25.1296
  27   2.0000      -0.887880       -24.1604
  28   2.0000      -0.869953       -23.6726
  29   2.0000      -0.842802       -22.9338
  30   2.0000      -0.827597       -22.5201
  31   2.0000      -0.754652       -20.5351
  32   2.0000      -0.727978       -19.8093
  33   2.0000      -0.616595       -16.7784
  34   2.0000      -0.558737       -15.2040
  35   2.0000      -0.537764       -14.6333
  36   2.0000      -0.529259       -14.4019
  37   2.0000      -0.382469       -10.4075
  38   2.0000      -0.370237       -10.0747
  39   2.0000      -0.359654        -9.7867
  40   2.0000      -0.343201        -9.3390
  41   2.0000      -0.331955        -9.0330
  42   2.0000      -0.325478        -8.8567
  43   2.0000      -0.312239        -8.4964
  44   2.0000      -0.309487        -8.4216
  45   2.0000      -0.222660        -6.0589
  46   0.0000      -0.037732        -1.0267
  47   0.0000      -0.012267        -0.3338
  48   0.0000       0.018723         0.5095
  49   0.0000       0.056369         1.5339
  50   0.0000       0.074167         2.0182

Dispersion correction            ...

MULLIKEN ATOMIC CHARGES
-----------------------
   0 C :   -0.332650
   1 N :   -0.250586
   2 H :    0.239650
   3 H :    0.300935
   4 H :    0.336366
   5 H :    0.179492
   6 H :    0.223456
   7 H :    0.164867
   8 Pb:    0.763653
   9 Cl:   -0.579445
  10 Cl:   -0.536674
  11 Cl:   -0.509065
Sum of atomic charges:   -0.0000000

LOEWDIN ATOMIC CHARGES
----------------------
   0 C :   -0.285761
   1 N :    0.135467
   2 H :    0.095168
   3 H :    0.228320
   4 H :    0.253186
   5 H :    0.115158
   6 H :    0.140133
   7 H :    0.126301
   8 Pb:   -0.219086
   9 Cl:   -0.218015
  10 Cl:   -0.193540
  11 Cl:   -0.177331

  Mayer bond orders larger than 0.1
B(  0-C ,  1-N ) :   0.8444 B(  0-C ,  5-H ) :   0.9394 B(  0-C ,  6-H ) :   0.9216
B(  0-C ,  7-H ) :   0.9463 B(  1-N ,  2-H ) :   0.8798 B(  1-N ,  3-H ) :   0.8658
B(  1-N ,  4-H ) :   0.8464 B(  2-H ,  9-Cl) :   0.1260 B(  8-Pb,  9-Cl) :   0.4782
B(  8-Pb, 10-Cl) :   0.6731 B(  8-Pb, 11-Cl) :   0.7810

MP2 TOTAL ENERGY:    -1669.511687609 Eh
Dispersion correction           -0.012666955
FINAL SINGLE POINT ENERGY     -1669.524354563436

DIPOLE MOMENT
-------------
                                X             Y             Z
Electronic contribution:    -59.03800     -49.96265     -36.83455
Nuclear contribution   :     63.48964      52.77997      38.53400
                        -----------------------------------------
Total Dipole Moment    :      4.45164       2.81732       1.69945
                        -----------------------------------------
Magnitude (a.u.)       :      5.53557
Magnitude (Debye)      :     14.07030

                             ****ORCA TERMINATED NORMALLY****
TOTAL RUN TIME: 0 days 0 hours 13 minutes 13 seconds 443 msec
