                         Program Version 3.0.3 - RELEASE   -
|  1> ! PW6B95 def2-TZVP GCP(DFT/TZ) ECP{def2-TZVP} Grid7 MORead
|  2> %pal nprocs 2 end
|  3> %method
|  4>  RunTyp Gradient
|  5>  end
|  6> %maxcore 2000
|  7> %moinp "previous.gbw"
|  8> *xyz 0 1
|  9> Pb 0.396799 0.331790 0.410404
| 10> Cl 2.924175 0.125131 0.954679
| 11> Cl 0.647926 2.786357 -0.533777
| 12> Cl -0.147512 1.250940 2.806294
| 13> Cs 2.832554 3.426708 2.557933
| 14> *
| 15>
| 16>                          ****END OF INPUT****

CARTESIAN COORDINATES (ANGSTROEM)
---------------------------------
  Pb     0.396799    0.331790    0.410404
  Cl     2.924175    0.125131    0.954679
  Cl     0.647926    2.786357   -0.533777
  Cl    -0.147512    1.250940    2.806294
  Cs     2.832554    3.426708    2.557933

 Total Charge           Charge          ....    0
 Multiplicity           Mult            ....    1
 Number of Electrons    NEL             ....   82
 Basis Dimension        Dim             ....  190

ORBITAL ENERGIES
----------------

  NO   OCC          E(Eh)            E(eV)
   0   2.0000    -101.856785     -2771.6640
   1   2.0000    -101.852516     -2771.5479
   2   2.0000    -101.848675     -2771.4434
   3   2.0000      -9.497217      -258.4324
   4   2.0000      -9.492761      -258.3111
   5   2.0000      -9.488696      -258.2005
   6   2.0000      -7.226800      -196.6512
   7   2.0000      -7.224395      -196.5858
   8   2.0000      -7.223982      -196.5745
   9   2.0000      -7.222372      -196.5307
  10   2.0000      -7.219965      -196.4652
  11   2.0000      -7.219520      -196.4531
  12   2.0000      -7.218345      -196.4211
  13   2.0000      -7.215902      -196.3547
  14   2.0000      -7.215462      -196.3427
  15   2.0000      -5.553485      -151.1180
  16   2.0000      -3.377285       -91.9006
  17   2.0000      -3.377108       -91.8958
  18   2.0000      -3.375937       -91.8639
  19   2.0000      -1.101450       -29.9720
  20   2.0000      -0.873599       -23.7718
  21   2.0000      -0.872426       -23.7399
  22   2.0000      -0.867147       -23.5963
  23   2.0000      -0.867016       -23.5927
  24   2.0000      -0.866189       -23.5702
  25   2.0000      -0.772632       -21.0244
  26   2.0000      -0.754996       -20.5445
  27   2.0000      -0.749915       -20.4062
  28   2.0000      -0.571488       -15.5510
  29   2.0000      -0.571360       -15.5475
  30   2.0000      -0.568712       -15.4754
  31   2.0000      -0.493742       -13.4354
  32   2.0000      -0.321117        -8.7380
  33   2.0000      -0.317010        -8.6263
  34   2.0000      -0.309077        -8.4104
  35   2.0000      -0.291213        -7.9243
  36   2.0000      -0.291055        -7.9200
  37   2.0000      -0.277185        -7.5426
  38   2.0000      -0.275003        -7.4832
  39   2.0000      -0.270474        -7.3600
  40   2.0000      -0.261704        -7.1213
  41   0.0000      -0.050762        -1.3813
  42   0.0000      -0.016750        -0.4558
  43   0.0000      -0.014700        -0.4000
  44   0.0000      -0.013127        -0.3572
  45   0.0000      -0.007179        -0.1953

MULLIKEN ATOMIC CHARGES
-----------------------
   0 Pb:    0.778785
   1 Cl:   -0.523389
   2 Cl:   -0.528375
   3 Cl:   -0.527806
   4 Cs:    0.800785
Sum of atomic charges:   -0.0000000

LOEWDIN ATOMIC CHARGES
----------------------
   0 Pb:    0.121880
   1 Cl:   -0.165382
   2 Cl:   -0.202609
   3 Cl:   -0.183681
   4 Cs:    0.429792

  Mayer bond orders larger than 0.1
B(  0-Pb,  1-Cl) :   0.6732 B(  0-Pb,  2-Cl) :   0.6750 B(  0-Pb,  3-Cl) :   0.6652
B(  1-Cl,  4-Cs) :   0.1317 B(  2-Cl,  4-Cs) :   0.1213 B(  3-Cl,  4-Cs) :   0.1331

FINAL SINGLE POINT ENERGY     -1595.079042496365

DIPOLE MOMENT
-------------
                                X             Y             Z
Electronic contribution:     28.48522      29.32615      24.55570
Nuclear contribution   :    -26.64870     -27.35430     -22.97668
                        -----------------------------------------
Total Dipole Moment    :      1.83652       1.97185       1.57901
                        -----------------------------------------
Magnitude (a.u.)       :      3.12318
Magnitude (Debye)      :      7.93850

                             ****ORCA TERMINATED NORMALLY****
TOTAL RUN TIME: 0 days 0 hours 12 minutes 46 seconds 925 msec
