                         Program Version 3.0.3 - RELEASE   -
|  1> ! RIJCOSX RI-B2PLYP D3BJ def2-TZVP ECP{def2-TZVP} TIGHTSCF Grid5 FinalGrid6 SlowConv MORead
|  2> %method
|  3>  RunTyp Gradient
|  4>  end
|  5> %maxcore 1000
|  6> %moinp "previous.gbw"
|  7> *xyz 0 1
|  8> C -0.394281 0.276013 -0.426662
|  9> N -1.165380 -0.685592 -1.253010
| 10> H 0.248796 -0.278576 0.260517
| 11> H -1.090820 0.897444 0.140826
| 12> H 0.215705 0.904875 -1.079130
| 13> H -1.783150 -1.324970 -0.698370
| 14> H -0.582260 -1.326300 -1.835140
| 15> H -1.813140 -0.240924 -1.938260
| 16> Pb -2.859750 -2.534590 -2.914500
| 17> Cl -0.471979 -2.277910 -3.607000
| 18> Cl -3.733560 -0.219555 -2.441240
| 19> Cl -2.617790 -3.417950 -0.619091
| 20> *
| 21>
| 22>                          ****END OF INPUT****

CARTESIAN COORDINATES (ANGSTROEM)
---------------------------------
  C     -0.394281    0.276013   -0.426662
  N     -1.165380   -0.685592   -1.253010
  H      0.248796   -0.278576    0.260517
  H     -1.090820    0.897444    0.140826
  H      0.215705    0.904875   -1.079130
  H     -1.783150   -1.324970   -0.698370
  H     -0.582260   -1.326300   -1.835140
  H     -1.813140   -0.240924   -1.938260
  Pb    -2.859750   -2.534590   -2.914500
  Cl    -0.471979   -2.277910   -3.607000
  Cl    -3.733560   -0.219555   -2.441240
  Cl    -2.617790   -3.417950   -0.619091

 Total Charge           Charge          ....    0
 Multiplicity           Mult            ....    1
 Number of Electrons    NEL             ....   92
 Basis Dimension        Dim             ....  259

ORBITAL ENERGIES
----------------

  NO   OCC          E(Eh)            E(eV)
   0   2.0000    -102.865711     -2799.1183
   1   2.0000    -102.863958     -2799.0706
   2   2.0000    -102.863053     -2799.0460
   3   2.0000     -14.958191      -407.0331
   4   2.0000     -10.709125      -291.4101
   5   2.0000      -9.874306      -268.6935
   6   2.0000      -9.872577      -268.6465
   7   2.0000      -9.871052      -268.6050
   8   2.0000      -7.511222      -204.3907
   9   2.0000      -7.509660      -204.3482
  10   2.0000      -7.509467      -204.3430
  11   2.0000      -7.509227      -204.3364
  12   2.0000      -7.508159      -204.3074
  13   2.0000      -7.507977      -204.3024
  14   2.0000      -7.507484      -204.2890
  15   2.0000      -7.506356      -204.2583
  16   2.0000      -7.505957      -204.2475
  17   2.0000      -5.797254      -157.7513
  18   2.0000      -3.569100       -97.1202
  19   2.0000      -3.567431       -97.0747
  20   2.0000      -3.567260       -97.0701
  21   2.0000      -1.144174       -31.1346
  22   2.0000      -0.975772       -26.5521
  23   2.0000      -0.974816       -26.5261
  24   2.0000      -0.961088       -26.1525
  25   2.0000      -0.958026       -26.0692
  26   2.0000      -0.956608       -26.0306
  27   2.0000      -0.909080       -24.7373
  28   2.0000      -0.880316       -23.9546
  29   2.0000      -0.873040       -23.7566
  30   2.0000      -0.857180       -23.3251
  31   2.0000      -0.670276       -18.2391
  32   2.0000      -0.669665       -18.2225
  33   2.0000      -0.608923       -16.5696
  34   2.0000      -0.559973       -15.2376
  35   2.0000      -0.522020       -14.2049
  36   2.0000      -0.521513       -14.1911
  37   2.0000      -0.404009       -10.9936
  38   2.0000      -0.399674       -10.8757
  39   2.0000      -0.381283       -10.3752
  40   2.0000      -0.365027        -9.9329
  41   2.0000      -0.364181        -9.9099
  42   2.0000      -0.361609        -9.8399
  43   2.0000      -0.358892        -9.7659
  44   2.0000      -0.351989        -9.5781
  45   2.0000      -0.289589        -7.8801
  46   0.0000      -0.003584        -0.0975
  47   0.0000       0.030768         0.8372
  48   0.0000       0.036139         0.9834
  49   0.0000       0.042394         1.1536
  50   0.0000       0.090012         2.4493

Dispersion correction            ...

MULLIKEN ATOMIC CHARGES
-----------------------
   0 C :   -0.286267
   1 N :   -0.306560
   2 H :    0.162335
   3 H :    0.164443
   4 H :    0.162521
   5 H :    0.287182
   6 H :    0.291150
   7 H :    0.289460
   8 Pb:    0.711323
   9 Cl:   -0.492914
  10 Cl:   -0.498892
  11 Cl:   -0.483781
Sum of atomic charges:   -0.0000000

LOEWDIN ATOMIC CHARGES
----------------------
   0 C :   -0.286825
   1 N :    0.058538
   2 H :    0.128008
   3 H :    0.128826
   4 H :    0.128468
   5 H :    0.173957
   6 H :    0.148955
   7 H :    0.145824
   8 Pb:   -0.163354
   9 Cl:   -0.151373
  10 Cl:   -0.161451
  11 Cl:   -0.149574

  Mayer bond orders larger than 0.1
B(  0-C ,  1-N ) :   0.8901 B(  0-C ,  2-H ) :   0.9524 B(  0-C ,  3-H ) :   0.9511
B(  0-C ,  4-H ) :   0.9519 B(  1-N ,  5-H ) :   0.8173 B(  1-N ,  6-H ) :   0.7861
B(  1-N ,  7-H ) :   0.7843 B(  5-H , 11-Cl) :   0.1177 B(  6-H ,  9-Cl) :   0.1571
B(  7-H , 10-Cl) :   0.1626 B(  8-Pb,  9-Cl) :   0.6518 B(  8-Pb, 10-Cl) :   0.6380
B(  8-Pb, 11-Cl) :   0.7124

MP2 TOTAL ENERGY:    -1669.599314173 Eh
Dispersion correction           -0.014531881
FINAL SINGLE POINT ENERGY     -1669.613846054416

DIPOLE MOMENT
-------------
                                X             Y             Z
Electronic contribution:    -64.74982     -68.42664     -69.42751
Nuclear contribution   :     65.71056      69.58284      70.18034
                        -----------------------------------------
Total Dipole Moment    :      0.96074       1.15620       0.75283
                        -----------------------------------------
Magnitude (a.u.)       :      1.68124
Magnitude (Debye)      :      4.27337

                             ****ORCA TERMINATED NORMALLY****
TOTAL RUN TIME: 0 days 0 hours 12 minutes 35 seconds 747 msec
