                         Program Version 3.0.3 - RELEASE   -
|  1> ! PW6B95 def2-TZVP GCP(DFT/TZ) ECP{def2-TZVP} Grid7 MORead
|  2> %pal nprocs 2 end
|  3> %method
|  4>  RunTyp Gradient
|  5>  end
|  6> %maxcore 2000
|  7> %moinp "previous.gbw"
|  8> *xyz 0 1
|  9> Pb 0.313373 0.555391 0.309564
| 10> Cl 2.838906 0.443034 -0.049250
| 11> Cl 0.339666 3.089794 0.987881
| 12> Cl 0.486416 -0.282456 2.684106
| 13> Cs 3.974079 4.799239 3.457622
| 14> *
| 15>
| 16>                          ****END OF INPUT****

CARTESIAN COORDINATES (ANGSTROEM)
---------------------------------
  Pb     0.313373    0.555391    0.309564
  Cl     2.838906    0.443034   -0.049250
  Cl     0.339666    3.089794    0.987881
  Cl     0.486416   -0.282456    2.684106
  Cs     3.974079    4.799239    3.457622

 Total Charge           Charge          ....    0
 Multiplicity           Mult            ....    1
 Number of Electrons    NEL             ....   82
 Basis Dimension        Dim             ....  190

ORBITAL ENERGIES
----------------

  NO   OCC          E(Eh)            E(eV)
   0   2.0000    -101.815014     -2770.5274
   1   2.0000    -101.809371     -2770.3738
   2   2.0000    -101.808719     -2770.3561
   3   2.0000      -9.455350      -257.2932
   4   2.0000      -9.449972      -257.1468
   5   2.0000      -9.449456      -257.1328
   6   2.0000      -7.184936      -195.5120
   7   2.0000      -7.182479      -195.4452
   8   2.0000      -7.182233      -195.4385
   9   2.0000      -7.179710      -195.3699
  10   2.0000      -7.179244      -195.3572
  11   2.0000      -7.176948      -195.2947
  12   2.0000      -7.176739      -195.2890
  13   2.0000      -7.176344      -195.2783
  14   2.0000      -7.176205      -195.2745
  15   2.0000      -5.506472      -149.8387
  16   2.0000      -3.330822       -90.6363
  17   2.0000      -3.330021       -90.6145
  18   2.0000      -3.328662       -90.5775
  19   2.0000      -1.164273       -31.6815
  20   2.0000      -0.828984       -22.5578
  21   2.0000      -0.828250       -22.5378
  22   2.0000      -0.821075       -22.3426
  23   2.0000      -0.820377       -22.3236
  24   2.0000      -0.819304       -22.2944
  25   2.0000      -0.733404       -19.9569
  26   2.0000      -0.713821       -19.4240
  27   2.0000      -0.709016       -19.2933
  28   2.0000      -0.633270       -17.2322
  29   2.0000      -0.633056       -17.2263
  30   2.0000      -0.630374       -17.1533
  31   2.0000      -0.451578       -12.2880
  32   2.0000      -0.283454        -7.7132
  33   2.0000      -0.280148        -7.6232
  34   2.0000      -0.266546        -7.2531
  35   2.0000      -0.250564        -6.8182
  36   2.0000      -0.249560        -6.7909
  37   2.0000      -0.236403        -6.4329
  38   2.0000      -0.234692        -6.3863
  39   2.0000      -0.230715        -6.2781
  40   2.0000      -0.215586        -5.8664
  41   0.0000      -0.091164        -2.4807
  42   0.0000      -0.035713        -0.9718
  43   0.0000      -0.034660        -0.9431
  44   0.0000      -0.034556        -0.9403
  45   0.0000      -0.029594        -0.8053

MULLIKEN ATOMIC CHARGES
-----------------------
   0 Pb:    0.766168
   1 Cl:   -0.550647
   2 Cl:   -0.591095
   3 Cl:   -0.533287
   4 Cs:    0.908860
Sum of atomic charges:   -0.0000000

LOEWDIN ATOMIC CHARGES
----------------------
   0 Pb:   -0.067227
   1 Cl:   -0.236690
   2 Cl:   -0.274299
   3 Cl:   -0.216004
   4 Cs:    0.794220

  Mayer bond orders larger than 0.1
B(  0-Pb,  1-Cl) :   0.7174 B(  0-Pb,  2-Cl) :   0.6043 B(  0-Pb,  3-Cl) :   0.7574

FINAL SINGLE POINT ENERGY     -1595.025794801494

DIPOLE MOMENT
-------------
                                X             Y             Z
Electronic contribution:     56.75014      98.01173      41.59555
Nuclear contribution   :    -52.59492     -92.18509     -38.27710
                        -----------------------------------------
Total Dipole Moment    :      4.15523       5.82664       3.31844
                        -----------------------------------------
Magnitude (a.u.)       :      7.88845
Magnitude (Debye)      :     20.05085

                             ****ORCA TERMINATED NORMALLY****
TOTAL RUN TIME: 0 days 0 hours 11 minutes 37 seconds 362 msec
