                         Program Version 3.0.3 - RELEASE   -
|  1> ! RIJCOSX RI-B2PLYP D3BJ def2-TZVP ECP{def2-TZVP} TIGHTSCF Grid5 FinalGrid6 SlowConv MORead
|  2> %method
|  3>  RunTyp Gradient
|  4>  end
|  5> %maxcore 1000
|  6> %moinp "previous.gbw"
|  7> *xyz 0 1
|  8> C -0.394281 0.276013 -0.426662
|  9> N -1.165380 -0.685592 -1.253010
| 10> H 0.248796 -0.278576 0.260517
| 11> H -1.090820 0.897444 0.140826
| 12> H 0.215705 0.904875 -1.079130
| 13> H -1.783150 -1.324970 -0.698370
| 14> H -0.582260 -1.326300 -1.835140
| 15> H -1.813140 -0.240924 -1.938260
| 16> Pb -2.574730 -2.636580 -3.040170
| 17> Cl -0.092175 -2.801970 -3.069280
| 18> Cl -2.837580 -0.182389 -3.642490
| 19> Cl -3.222740 -2.986060 -0.663169
| 20> *
| 21>
| 22>                          ****END OF INPUT****

CARTESIAN COORDINATES (ANGSTROEM)
---------------------------------
  C     -0.394281    0.276013   -0.426662
  N     -1.165380   -0.685592   -1.253010
  H      0.248796   -0.278576    0.260517
  H     -1.090820    0.897444    0.140826
  H      0.215705    0.904875   -1.079130
  H     -1.783150   -1.324970   -0.698370
  H     -0.582260   -1.326300   -1.835140
  H     -1.813140   -0.240924   -1.938260
  Pb    -2.574730   -2.636580   -3.040170
  Cl    -0.092175   -2.801970   -3.069280
  Cl    -2.837580   -0.182389   -3.642490
  Cl    -3.222740   -2.986060   -0.663169

 Total Charge           Charge          ....    0
 Multiplicity           Mult            ....    1
 Number of Electrons    NEL             ....   92
 Basis Dimension        Dim             ....  259

ORBITAL ENERGIES
----------------

  NO   OCC          E(Eh)            E(eV)
   0   2.0000    -102.868285     -2799.1883
   1   2.0000    -102.864638     -2799.0891
   2   2.0000    -102.862409     -2799.0284
   3   2.0000     -14.956683      -406.9920
   4   2.0000     -10.709522      -291.4209
   5   2.0000      -9.876810      -268.7617
   6   2.0000      -9.872667      -268.6489
   7   2.0000      -9.870655      -268.5942
   8   2.0000      -7.513755      -204.4597
   9   2.0000      -7.512243      -204.4185
  10   2.0000      -7.511647      -204.4023
  11   2.0000      -7.509654      -204.3481
  12   2.0000      -7.507977      -204.3024
  13   2.0000      -7.507645      -204.2934
  14   2.0000      -7.507542      -204.2906
  15   2.0000      -7.506111      -204.2517
  16   2.0000      -7.505581      -204.2372
  17   2.0000      -5.799350      -157.8083
  18   2.0000      -3.571362       -97.1817
  19   2.0000      -3.569706       -97.1367
  20   2.0000      -3.569025       -97.1181
  21   2.0000      -1.143905       -31.1272
  22   2.0000      -0.977695       -26.6044
  23   2.0000      -0.974941       -26.5295
  24   2.0000      -0.964013       -26.2321
  25   2.0000      -0.960034       -26.1239
  26   2.0000      -0.958799       -26.0902
  27   2.0000      -0.908209       -24.7136
  28   2.0000      -0.878641       -23.9090
  29   2.0000      -0.876896       -23.8616
  30   2.0000      -0.857788       -23.3416
  31   2.0000      -0.670705       -18.2508
  32   2.0000      -0.669333       -18.2135
  33   2.0000      -0.609278       -16.5793
  34   2.0000      -0.560335       -15.2475
  35   2.0000      -0.522614       -14.2210
  36   2.0000      -0.521618       -14.1940
  37   2.0000      -0.404010       -10.9937
  38   2.0000      -0.400648       -10.9022
  39   2.0000      -0.382874       -10.4185
  40   2.0000      -0.366532        -9.9738
  41   2.0000      -0.364779        -9.9262
  42   2.0000      -0.360874        -9.8199
  43   2.0000      -0.358824        -9.7641
  44   2.0000      -0.353439        -9.6176
  45   2.0000      -0.288891        -7.8611
  46   0.0000      -0.009938        -0.2704
  47   0.0000       0.027168         0.7393
  48   0.0000       0.039052         1.0627
  49   0.0000       0.041855         1.1389
  50   0.0000       0.089673         2.4401

Dispersion correction            ...

MULLIKEN ATOMIC CHARGES
-----------------------
   0 C :   -0.284170
   1 N :   -0.323707
   2 H :    0.163162
   3 H :    0.162542
   4 H :    0.165551
   5 H :    0.282591
   6 H :    0.290731
   7 H :    0.288574
   8 Pb:    0.709613
   9 Cl:   -0.475872
  10 Cl:   -0.493662
  11 Cl:   -0.485353
Sum of atomic charges:   -0.0000000

LOEWDIN ATOMIC CHARGES
----------------------
   0 C :   -0.287099
   1 N :    0.062053
   2 H :    0.128153
   3 H :    0.127902
   4 H :    0.129464
   5 H :    0.168957
   6 H :    0.141334
   7 H :    0.142038
   8 Pb:   -0.141503
   9 Cl:   -0.136785
  10 Cl:   -0.174104
  11 Cl:   -0.160410

  Mayer bond orders larger than 0.1
B(  0-C ,  1-N ) :   0.8855 B(  0-C ,  2-H ) :   0.9531 B(  0-C ,  3-H ) :   0.9523
B(  0-C ,  4-H ) :   0.9523 B(  1-N ,  5-H ) :   0.8083 B(  1-N ,  6-H ) :   0.7738
B(  1-N ,  7-H ) :   0.7746 B(  5-H , 11-Cl) :   0.1409 B(  6-H ,  9-Cl) :   0.1903
B(  7-H , 10-Cl) :   0.1887 B(  8-Pb,  9-Cl) :   0.6685 B(  8-Pb, 10-Cl) :   0.6375
B(  8-Pb, 11-Cl) :   0.6935

MP2 TOTAL ENERGY:    -1669.602611278 Eh
Dispersion correction           -0.014338313
FINAL SINGLE POINT ENERGY     -1669.616949590997

DIPOLE MOMENT
-------------
                                X             Y             Z
Electronic contribution:    -56.66506     -74.13572     -66.90254
Nuclear contribution   :     57.44132      75.18649      67.94059
                        -----------------------------------------
Total Dipole Moment    :      0.77626       1.05077       1.03805
                        -----------------------------------------
Magnitude (a.u.)       :      1.66861
Magnitude (Debye)      :      4.24126

                             ****ORCA TERMINATED NORMALLY****
TOTAL RUN TIME: 0 days 0 hours 14 minutes 21 seconds 771 msec
