                         Program Version 3.0.3 - RELEASE   -
|  1> ! PW6B95 def2-TZVP GCP(DFT/TZ) ECP{def2-TZVP} Grid7 MORead
|  2> %pal nprocs 2 end
|  3> %method
|  4>  RunTyp Gradient
|  5>  end
|  6> %maxcore 2000
|  7> %moinp "previous.gbw"
|  8> *xyz 0 1
|  9> Pb 0.355812 0.297124 0.544159
| 10> Cl 2.521366 0.848943 -0.729589
| 11> Cl -0.288869 2.869202 0.761561
| 12> Cl 1.514829 0.350971 2.769890
| 13> Cs 3.203817 3.747184 2.757956
| 14> *
| 15>
| 16>                          ****END OF INPUT****

CARTESIAN COORDINATES (ANGSTROEM)
---------------------------------
  Pb     0.355812    0.297124    0.544159
  Cl     2.521366    0.848943   -0.729589
  Cl    -0.288869    2.869202    0.761561
  Cl     1.514829    0.350971    2.769890
  Cs     3.203817    3.747184    2.757956

 Total Charge           Charge          ....    0
 Multiplicity           Mult            ....    1
 Number of Electrons    NEL             ....   82
 Basis Dimension        Dim             ....  190

ORBITAL ENERGIES
----------------

  NO   OCC          E(Eh)            E(eV)
   0   2.0000    -101.852961     -2771.5600
   1   2.0000    -101.834036     -2771.0450
   2   2.0000    -101.832452     -2771.0019
   3   2.0000      -9.494075      -258.3469
   4   2.0000      -9.474405      -257.8117
   5   2.0000      -9.472477      -257.7592
   6   2.0000      -7.223630      -196.5650
   7   2.0000      -7.221173      -196.4981
   8   2.0000      -7.220803      -196.4880
   9   2.0000      -7.204158      -196.0351
  10   2.0000      -7.202094      -195.9790
  11   2.0000      -7.201406      -195.9602
  12   2.0000      -7.201172      -195.9539
  13   2.0000      -7.199686      -195.9134
  14   2.0000      -7.199294      -195.9027
  15   2.0000      -5.535906      -150.6396
  16   2.0000      -3.360087       -91.4326
  17   2.0000      -3.359570       -91.4185
  18   2.0000      -3.358127       -91.3793
  19   2.0000      -1.122240       -30.5377
  20   2.0000      -0.860050       -23.4031
  21   2.0000      -0.855690       -23.2845
  22   2.0000      -0.850293       -23.1377
  23   2.0000      -0.849837       -23.1252
  24   2.0000      -0.848660       -23.0932
  25   2.0000      -0.767454       -20.8835
  26   2.0000      -0.740602       -20.1528
  27   2.0000      -0.733103       -19.9488
  28   2.0000      -0.592314       -16.1177
  29   2.0000      -0.591550       -16.0969
  30   2.0000      -0.588150       -16.0044
  31   2.0000      -0.480454       -13.0738
  32   2.0000      -0.314990        -8.5713
  33   2.0000      -0.306413        -8.3379
  34   2.0000      -0.302093        -8.2204
  35   2.0000      -0.281869        -7.6700
  36   2.0000      -0.275807        -7.5051
  37   2.0000      -0.262203        -7.1349
  38   2.0000      -0.260188        -7.0801
  39   2.0000      -0.254401        -6.9226
  40   2.0000      -0.245665        -6.6849
  41   0.0000      -0.063736        -1.7344
  42   0.0000      -0.016326        -0.4442
  43   0.0000      -0.016290        -0.4433
  44   0.0000      -0.012936        -0.3520
  45   0.0000      -0.006515        -0.1773

MULLIKEN ATOMIC CHARGES
-----------------------
   0 Pb:    0.776933
   1 Cl:   -0.524149
   2 Cl:   -0.554957
   3 Cl:   -0.531852
   4 Cs:    0.834025
Sum of atomic charges:   -0.0000000

LOEWDIN ATOMIC CHARGES
----------------------
   0 Pb:    0.030147
   1 Cl:   -0.205288
   2 Cl:   -0.244208
   3 Cl:   -0.137743
   4 Cs:    0.557092

  Mayer bond orders larger than 0.1
B(  0-Pb,  1-Cl) :   0.7299 B(  0-Pb,  2-Cl) :   0.6410 B(  0-Pb,  3-Cl) :   0.6659
B(  2-Cl,  4-Cs) :   0.1170 B(  3-Cl,  4-Cs) :   0.1290

FINAL SINGLE POINT ENERGY     -1595.062208834166

DIPOLE MOMENT
-------------
                                X             Y             Z
Electronic contribution:     32.26162      40.19751      43.89834
Nuclear contribution   :    -29.81986     -37.48455     -41.29001
                        -----------------------------------------
Total Dipole Moment    :      2.44177       2.71296       2.60833
                        -----------------------------------------
Magnitude (a.u.)       :      4.48618
Magnitude (Debye)      :     11.40296

                             ****ORCA TERMINATED NORMALLY****
TOTAL RUN TIME: 0 days 0 hours 12 minutes 40 seconds 398 msec
