                         Program Version 3.0.3 - RELEASE   -
|  1> ! PW6B95 def2-TZVP GCP(DFT/TZ) ECP{def2-TZVP} Grid7 MORead
|  2> %pal nprocs 2 end
|  3> %method
|  4>  RunTyp Gradient
|  5>  end
|  6> %maxcore 2000
|  7> %moinp "previous.gbw"
|  8> *xyz 0 1
|  9> Pb 0.548729 0.360226 0.226443
| 10> Cl 3.068997 0.975322 0.858939
| 11> Cl -0.135814 2.887130 0.329121
| 12> Cl -0.122190 0.055695 2.744286
| 13> Cs 3.744504 4.477417 3.205223
| 14> *
| 15>
| 16>                          ****END OF INPUT****

CARTESIAN COORDINATES (ANGSTROEM)
---------------------------------
  Pb     0.548729    0.360226    0.226443
  Cl     3.068997    0.975322    0.858939
  Cl    -0.135814    2.887130    0.329121
  Cl    -0.122190    0.055695    2.744286
  Cs     3.744504    4.477417    3.205223

 Total Charge           Charge          ....    0
 Multiplicity           Mult            ....    1
 Number of Electrons    NEL             ....   82
 Basis Dimension        Dim             ....  190

ORBITAL ENERGIES
----------------

  NO   OCC          E(Eh)            E(eV)
   0   2.0000    -101.826121     -2770.8296
   1   2.0000    -101.818135     -2770.6123
   2   2.0000    -101.811104     -2770.4210
   3   2.0000      -9.466168      -257.5875
   4   2.0000      -9.458234      -257.3716
   5   2.0000      -9.451063      -257.1765
   6   2.0000      -7.195807      -195.8079
   7   2.0000      -7.193324      -195.7403
   8   2.0000      -7.193050      -195.7328
   9   2.0000      -7.188048      -195.5967
  10   2.0000      -7.185251      -195.5206
  11   2.0000      -7.185007      -195.5140
  12   2.0000      -7.180995      -195.4048
  13   2.0000      -7.177965      -195.3224
  14   2.0000      -7.177836      -195.3188
  15   2.0000      -5.526338      -150.3793
  16   2.0000      -3.350621       -91.1750
  17   2.0000      -3.349794       -91.1525
  18   2.0000      -3.348328       -91.1126
  19   2.0000      -1.149930       -31.2912
  20   2.0000      -0.845264       -23.0008
  21   2.0000      -0.844207       -22.9720
  22   2.0000      -0.840151       -22.8617
  23   2.0000      -0.839436       -22.8422
  24   2.0000      -0.838161       -22.8075
  25   2.0000      -0.737619       -20.0716
  26   2.0000      -0.721947       -19.6452
  27   2.0000      -0.712772       -19.3955
  28   2.0000      -0.619377       -16.8541
  29   2.0000      -0.618957       -16.8427
  30   2.0000      -0.615563       -16.7503
  31   2.0000      -0.463602       -12.6152
  32   2.0000      -0.289171        -7.8687
  33   2.0000      -0.282369        -7.6836
  34   2.0000      -0.273531        -7.4432
  35   2.0000      -0.258287        -7.0283
  36   2.0000      -0.255285        -6.9467
  37   2.0000      -0.243240        -6.6189
  38   2.0000      -0.237693        -6.4680
  39   2.0000      -0.233676        -6.3586
  40   2.0000      -0.230894        -6.2829
  41   0.0000      -0.081613        -2.2208
  42   0.0000      -0.028313        -0.7704
  43   0.0000      -0.027812        -0.7568
  44   0.0000      -0.027278        -0.7423
  45   0.0000      -0.019412        -0.5282

MULLIKEN ATOMIC CHARGES
-----------------------
   0 Pb:    0.784177
   1 Cl:   -0.584748
   2 Cl:   -0.550797
   3 Cl:   -0.536324
   4 Cs:    0.887693
Sum of atomic charges:   -0.0000000

LOEWDIN ATOMIC CHARGES
----------------------
   0 Pb:    0.062690
   1 Cl:   -0.271205
   2 Cl:   -0.256550
   3 Cl:   -0.261444
   4 Cs:    0.726509

  Mayer bond orders larger than 0.1
B(  0-Pb,  1-Cl) :   0.5917 B(  0-Pb,  2-Cl) :   0.7012 B(  0-Pb,  3-Cl) :   0.7489
B(  1-Cl,  4-Cs) :   0.1232

FINAL SINGLE POINT ENERGY     -1595.035581152128

DIPOLE MOMENT
-------------
                                X             Y             Z
Electronic contribution:     74.21195      68.17146      24.57365
Nuclear contribution   :    -69.97683     -63.65638     -22.26852
                        -----------------------------------------
Total Dipole Moment    :      4.23512       4.51508       2.30513
                        -----------------------------------------
Magnitude (a.u.)       :      6.60574
Magnitude (Debye)      :     16.79045

                             ****ORCA TERMINATED NORMALLY****
TOTAL RUN TIME: 0 days 0 hours 12 minutes 13 seconds 286 msec
