                         Program Version 3.0.3 - RELEASE   -
|  1> ! RIJCOSX RI-B2PLYP D3BJ def2-TZVP ECP{def2-TZVP} TIGHTSCF Grid5 FinalGrid6 SlowConv MORead
|  2> %method
|  3>  RunTyp Gradient
|  4>  end
|  5> %maxcore 1000
|  6> %moinp "previous.gbw"
|  7> *xyz 0 1
|  8> C 2.905719 3.576013 2.873338
|  9> N 2.134625 2.614408 2.046990
| 10> H 3.548796 3.021424 3.560517
| 11> H 2.209179 4.197444 3.440826
| 12> H 3.515705 4.204875 2.220874
| 13> H 1.516852 1.975028 2.601630
| 14> H 2.717740 1.973704 1.464858
| 15> H 1.486857 3.059076 1.361735
| 16> Pb 0.687904 0.131547 0.209487
| 17> Cl 2.426783 0.268387 0.089874
| 18> Cl -0.358321 2.735046 -0.108798
| 19> Cl 0.286792 0.320768 2.851419
| 20> *
| 21>
| 22>                          ****END OF INPUT****

CARTESIAN COORDINATES (ANGSTROEM)
---------------------------------
  C      2.905719    3.576013    2.873338
  N      2.134625    2.614408    2.046990
  H      3.548796    3.021424    3.560517
  H      2.209179    4.197444    3.440826
  H      3.515705    4.204875    2.220874
  H      1.516852    1.975028    2.601630
  H      2.717740    1.973704    1.464858
  H      1.486857    3.059076    1.361735
  Pb     0.687904    0.131547    0.209487
  Cl     2.426783    0.268387    0.089874
  Cl    -0.358321    2.735046   -0.108798
  Cl     0.286792    0.320768    2.851419

 Total Charge           Charge          ....    0
 Multiplicity           Mult            ....    1
 Number of Electrons    NEL             ....   92
 Basis Dimension        Dim             ....  259

ORBITAL ENERGIES
----------------

  NO   OCC          E(Eh)            E(eV)
   0   2.0000    -102.943567     -2801.2369
   1   2.0000    -102.835638     -2798.3000
   2   2.0000    -102.814533     -2797.7257
   3   2.0000     -14.976790      -407.5392
   4   2.0000     -10.719132      -291.6824
   5   2.0000      -9.972097      -271.3546
   6   2.0000      -9.842840      -267.8373
   7   2.0000      -9.820410      -267.2269
   8   2.0000      -7.610897      -207.1030
   9   2.0000      -7.603745      -206.9084
  10   2.0000      -7.603600      -206.9045
  11   2.0000      -7.479688      -203.5326
  12   2.0000      -7.478576      -203.5024
  13   2.0000      -7.477903      -203.4841
  14   2.0000      -7.457331      -202.9243
  15   2.0000      -7.456140      -202.8919
  16   2.0000      -7.455701      -202.8799
  17   2.0000      -5.813065      -158.1816
  18   2.0000      -3.598497       -97.9201
  19   2.0000      -3.581498       -97.4575
  20   2.0000      -3.580612       -97.4334
  21   2.0000      -1.193081       -32.4654
  22   2.0000      -1.152562       -31.3628
  23   2.0000      -1.001768       -27.2595
  24   2.0000      -1.001216       -27.2445
  25   2.0000      -0.973008       -26.4769
  26   2.0000      -0.968938       -26.3661
  27   2.0000      -0.909685       -24.7538
  28   2.0000      -0.872146       -23.7323
  29   2.0000      -0.852373       -23.1943
  30   2.0000      -0.826195       -22.4819
  31   2.0000      -0.683277       -18.5929
  32   2.0000      -0.675984       -18.3945
  33   2.0000      -0.613080       -16.6827
  34   2.0000      -0.599367       -16.3096
  35   2.0000      -0.532402       -14.4874
  36   2.0000      -0.529234       -14.4012
  37   2.0000      -0.480237       -13.0679
  38   2.0000      -0.479316       -13.0429
  39   2.0000      -0.379548       -10.3280
  40   2.0000      -0.342448        -9.3185
  41   2.0000      -0.337975        -9.1968
  42   2.0000      -0.327219        -8.9041
  43   2.0000      -0.314786        -8.5658
  44   2.0000      -0.304500        -8.2859
  45   2.0000      -0.260905        -7.0996
  46   0.0000       0.011603         0.3157
  47   0.0000       0.023310         0.6343
  48   0.0000       0.030115         0.8195
  49   0.0000       0.068170         1.8550
  50   0.0000       0.086115         2.3433

Dispersion correction            ...

MULLIKEN ATOMIC CHARGES
-----------------------
   0 C :   -0.275303
   1 N :   -0.300488
   2 H :    0.162779
   3 H :    0.174493
   4 H :    0.161394
   5 H :    0.279137
   6 H :    0.268389
   7 H :    0.269692
   8 Pb:    0.691872
   9 Cl:   -0.318503
  10 Cl:   -0.575866
  11 Cl:   -0.537595
Sum of atomic charges:   -0.0000000

LOEWDIN ATOMIC CHARGES
----------------------
   0 C :   -0.284234
   1 N :    0.081997
   2 H :    0.128092
   3 H :    0.132981
   4 H :    0.126684
   5 H :    0.150687
   6 H :    0.166630
   7 H :    0.172196
   8 Pb:   -0.381390
   9 Cl:    0.363615
  10 Cl:   -0.382397
  11 Cl:   -0.274861

  Mayer bond orders larger than 0.1
B(  0-C ,  1-N ) :   0.8863 B(  0-C ,  2-H ) :   0.9516 B(  0-C ,  3-H ) :   0.9496
B(  0-C ,  4-H ) :   0.9515 B(  1-N ,  5-H ) :   0.7623 B(  1-N ,  6-H ) :   0.8513
B(  1-N ,  7-H ) :   0.7994 B(  5-H , 11-Cl) :   0.2293 B(  7-H , 10-Cl) :   0.1918
B(  8-Pb,  9-Cl) :   1.2249 B(  8-Pb, 10-Cl) :   0.5241 B(  8-Pb, 11-Cl) :   0.5443

MP2 TOTAL ENERGY:    -1669.273122399 Eh
Dispersion correction           -0.014038770
FINAL SINGLE POINT ENERGY     -1669.287161168808

DIPOLE MOMENT
-------------
                                X             Y             Z
Electronic contribution:    -36.58607     -99.12481     -74.87879
Nuclear contribution   :     39.88440      99.85676      75.48845
                        -----------------------------------------
Total Dipole Moment    :      3.29834       0.73195       0.60966
                        -----------------------------------------
Magnitude (a.u.)       :      3.43314
Magnitude (Debye)      :      8.72635

                             ****ORCA TERMINATED NORMALLY****
TOTAL RUN TIME: 0 days 0 hours 17 minutes 36 seconds 507 msec
