                         Program Version 3.0.3 - RELEASE   -
|  1> ! RIJCOSX RI-B2PLYP D3BJ def2-TZVP ECP{def2-TZVP} TIGHTSCF Grid5 FinalGrid6 SlowConv MORead
|  2> %method
|  3>  RunTyp Gradient
|  4>  end
|  5> %maxcore 1000
|  6> %moinp "previous.gbw"
|  7> *xyz 0 1
|  8> C -0.394281 0.276013 -0.426662
|  9> N -1.165380 -0.685592 -1.253010
| 10> H 0.248796 -0.278576 0.260517
| 11> H -1.090820 0.897444 0.140826
| 12> H 0.215705 0.904875 -1.079130
| 13> H -1.783150 -1.324970 -0.698370
| 14> H -0.582260 -1.326300 -1.835140
| 15> H -1.813140 -0.240924 -1.938260
| 16> Pb -2.544160 -2.637720 -3.008440
| 17> Cl -0.091640 -2.338030 -3.472170
| 18> Cl -3.539640 -0.324771 -2.979870
| 19> Cl -2.480820 -3.478070 -0.654522
| 20> *
| 21>
| 22>                          ****END OF INPUT****

CARTESIAN COORDINATES (ANGSTROEM)
---------------------------------
  C     -0.394281    0.276013   -0.426662
  N     -1.165380   -0.685592   -1.253010
  H      0.248796   -0.278576    0.260517
  H     -1.090820    0.897444    0.140826
  H      0.215705    0.904875   -1.079130
  H     -1.783150   -1.324970   -0.698370
  H     -0.582260   -1.326300   -1.835140
  H     -1.813140   -0.240924   -1.938260
  Pb    -2.544160   -2.637720   -3.008440
  Cl    -0.091640   -2.338030   -3.472170
  Cl    -3.539640   -0.324771   -2.979870
  Cl    -2.480820   -3.478070   -0.654522

 Total Charge           Charge          ....    0
 Multiplicity           Mult            ....    1
 Number of Electrons    NEL             ....   92
 Basis Dimension        Dim             ....  259

ORBITAL ENERGIES
----------------

  NO   OCC          E(Eh)            E(eV)
   0   2.0000    -102.865744     -2799.1192
   1   2.0000    -102.865741     -2799.1191
   2   2.0000    -102.861685     -2799.0087
   3   2.0000     -14.961409      -407.1206
   4   2.0000     -10.711384      -291.4716
   5   2.0000      -9.874150      -268.6893
   6   2.0000      -9.874097      -268.6878
   7   2.0000      -9.869485      -268.5624
   8   2.0000      -7.511052      -204.3861
   9   2.0000      -7.510991      -204.3844
  10   2.0000      -7.509590      -204.3463
  11   2.0000      -7.509508      -204.3441
  12   2.0000      -7.509052      -204.3317
  13   2.0000      -7.509019      -204.3308
  14   2.0000      -7.506557      -204.2638
  15   2.0000      -7.504815      -204.2164
  16   2.0000      -7.504442      -204.2063
  17   2.0000      -5.800128      -157.8295
  18   2.0000      -3.572285       -97.2068
  19   2.0000      -3.570331       -97.1537
  20   2.0000      -3.569848       -97.1405
  21   2.0000      -1.147441       -31.2235
  22   2.0000      -0.976919       -26.5833
  23   2.0000      -0.975885       -26.5552
  24   2.0000      -0.964905       -26.2564
  25   2.0000      -0.960515       -26.1370
  26   2.0000      -0.959357       -26.1054
  27   2.0000      -0.907495       -24.6942
  28   2.0000      -0.880649       -23.9637
  29   2.0000      -0.873542       -23.7703
  30   2.0000      -0.859664       -23.3926
  31   2.0000      -0.673509       -18.3271
  32   2.0000      -0.672405       -18.2971
  33   2.0000      -0.612393       -16.6641
  34   2.0000      -0.559550       -15.2261
  35   2.0000      -0.524317       -14.2674
  36   2.0000      -0.523342       -14.2409
  37   2.0000      -0.403699       -10.9852
  38   2.0000      -0.399375       -10.8675
  39   2.0000      -0.381225       -10.3737
  40   2.0000      -0.365072        -9.9341
  41   2.0000      -0.363785        -9.8991
  42   2.0000      -0.361777        -9.8445
  43   2.0000      -0.359708        -9.7881
  44   2.0000      -0.352226        -9.5846
  45   2.0000      -0.288709        -7.8562
  46   0.0000      -0.010999        -0.2993
  47   0.0000       0.028599         0.7782
  48   0.0000       0.037381         1.0172
  49   0.0000       0.040919         1.1135
  50   0.0000       0.087522         2.3816

Dispersion correction            ...

MULLIKEN ATOMIC CHARGES
-----------------------
   0 C :   -0.286591
   1 N :   -0.313968
   2 H :    0.165256
   3 H :    0.163460
   4 H :    0.165009
   5 H :    0.287506
   6 H :    0.290408
   7 H :    0.290068
   8 Pb:    0.708241
   9 Cl:   -0.485943
  10 Cl:   -0.492953
  11 Cl:   -0.490492
Sum of atomic charges:   -0.0000000

LOEWDIN ATOMIC CHARGES
----------------------
   0 C :   -0.285194
   1 N :    0.062869
   2 H :    0.129172
   3 H :    0.128377
   4 H :    0.129574
   5 H :    0.176592
   6 H :    0.141867
   7 H :    0.148344
   8 Pb:   -0.140374
   9 Cl:   -0.155704
  10 Cl:   -0.165041
  11 Cl:   -0.170481

  Mayer bond orders larger than 0.1
B(  0-C ,  1-N ) :   0.8856 B(  0-C ,  2-H ) :   0.9521 B(  0-C ,  3-H ) :   0.9513
B(  0-C ,  4-H ) :   0.9520 B(  1-N ,  5-H ) :   0.8169 B(  1-N ,  6-H ) :   0.7716
B(  1-N ,  7-H ) :   0.7841 B(  5-H , 11-Cl) :   0.1188 B(  6-H ,  9-Cl) :   0.1865
B(  7-H , 10-Cl) :   0.1681 B(  8-Pb,  9-Cl) :   0.6502 B(  8-Pb, 10-Cl) :   0.6471
B(  8-Pb, 11-Cl) :   0.6998

MP2 TOTAL ENERGY:    -1669.599597476 Eh
Dispersion correction           -0.014357827
FINAL SINGLE POINT ENERGY     -1669.613955303096

DIPOLE MOMENT
-------------
                                X             Y             Z
Electronic contribution:    -55.35949     -71.57405     -68.88990
Nuclear contribution   :     56.10340      72.82183      69.78831
                        -----------------------------------------
Total Dipole Moment    :      0.74391       1.24777       0.89840
                        -----------------------------------------
Magnitude (a.u.)       :      1.70806
Magnitude (Debye)      :      4.34154

                             ****ORCA TERMINATED NORMALLY****
TOTAL RUN TIME: 0 days 0 hours 14 minutes 4 seconds 534 msec
