                         Program Version 3.0.3 - RELEASE   -
|  1> ! RIJCOSX RI-B2PLYP D3BJ def2-TZVP ECP{def2-TZVP} TIGHTSCF Grid5 FinalGrid6 MORead
|  2> %method
|  3>  RunTyp Gradient
|  4>  end
|  5> %maxcore 1000
|  6> %moinp "previous.gbw"
|  7> *xyz 0 1
|  8> C 2.891451 3.575826 2.778059
|  9> N 2.089424 2.555032 2.059582
| 10> H 3.558472 3.076137 3.484362
| 11> H 2.218727 4.247132 3.316750
| 12> H 3.479382 4.144646 2.054078
| 13> H 1.492676 1.958835 2.673590
| 14> H 2.651801 1.866309 1.511973
| 15> H 1.418732 2.942131 1.359080
| 16> Pb 0.108296 0.033819 0.271723
| 17> Cl 2.721296 0.231495 0.289259
| 18> Cl -0.078583 2.610348 -0.093474
| 19> Cl 0.045533 0.420072 2.861875
| 20> Cl -2.473618 -0.135840 0.292985
| 21> Cl 0.183448 -0.284469 -2.332226
| 22> Cl 0.322624 -2.586145 0.670481
| 23> N -1.944119 -2.595072 -1.633806
| 24> C -2.725500 -3.643046 -2.335777
| 25> H -2.519034 -1.905375 -1.102173
| 26> H -1.352579 -2.002501 -2.255638
| 27> H -3.308461 -4.206070 -1.603344
| 28> H -2.038395 -4.314606 -2.855607
| 29> H -3.396098 -3.169682 -3.056568
| 30> H -1.270867 -2.959590 -0.921865
| 31> *
| 32>
| 33>                          ****END OF INPUT****

CARTESIAN COORDINATES (ANGSTROEM)
---------------------------------
  C      2.891451    3.575826    2.778059
  N      2.089424    2.555032    2.059582
  H      3.558472    3.076137    3.484362
  H      2.218727    4.247132    3.316750
  H      3.479382    4.144646    2.054078
  H      1.492676    1.958835    2.673590
  H      2.651801    1.866309    1.511973
  H      1.418732    2.942131    1.359080
  Pb     0.108296    0.033819    0.271723
  Cl     2.721296    0.231495    0.289259
  Cl    -0.078583    2.610348   -0.093474
  Cl     0.045533    0.420072    2.861875
  Cl    -2.473618   -0.135840    0.292985
  Cl     0.183448   -0.284469   -2.332226
  Cl     0.322624   -2.586145    0.670481
  N     -1.944119   -2.595072   -1.633806
  C     -2.725500   -3.643046   -2.335777
  H     -2.519034   -1.905375   -1.102173
  H     -1.352579   -2.002501   -2.255638
  H     -3.308461   -4.206070   -1.603344
  H     -2.038395   -4.314606   -2.855607
  H     -3.396098   -3.169682   -3.056568
  H     -1.270867   -2.959590   -0.921865

 Total Charge           Charge          ....    0
 Multiplicity           Mult            ....    1
 Number of Electrons    NEL             ....  162
 Basis Dimension        Dim             ....  468

ORBITAL ENERGIES
----------------

  NO   OCC          E(Eh)            E(eV)
   0   2.0000    -102.869202     -2799.2133
   1   2.0000    -102.866335     -2799.1353
   2   2.0000    -102.865492     -2799.1123
   3   2.0000    -102.864230     -2799.0780
   4   2.0000    -102.864161     -2799.0761
   5   2.0000    -102.862638     -2799.0347
   6   2.0000     -14.972239      -407.4153
   7   2.0000     -14.943657      -406.6376
   8   2.0000     -10.715239      -291.5765
   9   2.0000     -10.699951      -291.1605
  10   2.0000      -9.875504      -268.7261
  11   2.0000      -9.873019      -268.6585
  12   2.0000      -9.871479      -268.6166
  13   2.0000      -9.870836      -268.5991
  14   2.0000      -9.870635      -268.5936
  15   2.0000      -9.868459      -268.5344
  16   2.0000      -7.513562      -204.4544
  17   2.0000      -7.510935      -204.3829
  18   2.0000      -7.510465      -204.3702
  19   2.0000      -7.510008      -204.3577
  20   2.0000      -7.509520      -204.3444
  21   2.0000      -7.508760      -204.3237
  22   2.0000      -7.508583      -204.3189
  23   2.0000      -7.508072      -204.3050
  24   2.0000      -7.507513      -204.2898
  25   2.0000      -7.506466      -204.2613
  26   2.0000      -7.506439      -204.2606
  27   2.0000      -7.506031      -204.2495
  28   2.0000      -7.505868      -204.2450
  29   2.0000      -7.505667      -204.2396
  30   2.0000      -7.505346      -204.2308
  31   2.0000      -7.505147      -204.2254
  32   2.0000      -7.503515      -204.1810
  33   2.0000      -7.503033      -204.1679
  34   2.0000      -5.836208      -158.8113
  35   2.0000      -3.609137       -98.2096
  36   2.0000      -3.608359       -98.1884
  37   2.0000      -3.608273       -98.1861
  38   2.0000      -1.145858       -31.1804
  39   2.0000      -1.125676       -30.6312
  40   2.0000      -1.010168       -27.4881
  41   2.0000      -1.008767       -27.4499
  42   2.0000      -0.995281       -27.0830
  43   2.0000      -0.993975       -27.0474
  44   2.0000      -0.993751       -27.0413
  45   2.0000      -0.903191       -24.5771
  46   2.0000      -0.886071       -24.1112
  47   2.0000      -0.880961       -23.9722
  48   2.0000      -0.878691       -23.9104
  49   2.0000      -0.863981       -23.5101
  50   2.0000      -0.863470       -23.4962
  51   2.0000      -0.861092       -23.4315
  52   2.0000      -0.847286       -23.0558
  53   2.0000      -0.672577       -18.3018
  54   2.0000      -0.671664       -18.2769
  55   2.0000      -0.653602       -17.7854
  56   2.0000      -0.653334       -17.7781
  57   2.0000      -0.606482       -16.5032
  58   2.0000      -0.589651       -16.0452
  59   2.0000      -0.572883       -15.5889
  60   2.0000      -0.525510       -14.2998
  61   2.0000      -0.525252       -14.2928
  62   2.0000      -0.511630       -13.9222
  63   2.0000      -0.511238       -13.9115
  64   2.0000      -0.413064       -11.2400
  65   2.0000      -0.410121       -11.1600
  66   2.0000      -0.408993       -11.1293
  67   2.0000      -0.374668       -10.1952
  68   2.0000      -0.369711       -10.0603
  69   2.0000      -0.367884       -10.0106
  70   2.0000      -0.353934        -9.6310
  71   2.0000      -0.351925        -9.5764
  72   2.0000      -0.350813        -9.5461
  73   2.0000      -0.348071        -9.4715
  74   2.0000      -0.344867        -9.3843
  75   2.0000      -0.344243        -9.3673
  76   2.0000      -0.339296        -9.2327
  77   2.0000      -0.338519        -9.2116
  78   2.0000      -0.337658        -9.1882
  79   2.0000      -0.335848        -9.1389
  80   2.0000      -0.331613        -9.0237
  81   0.0000      -0.123482        -3.3601
  82   0.0000       0.032975         0.8973
  83   0.0000       0.046734         1.2717
  84   0.0000       0.078582         2.1383
  85   0.0000       0.084974         2.3123

Dispersion correction            ...

MULLIKEN ATOMIC CHARGES
-----------------------
   0 C :   -0.278439
   1 N :   -0.287268
   2 H :    0.159806
   3 H :    0.160200
   4 H :    0.160465
   5 H :    0.273100
   6 H :    0.274261
   7 H :    0.271293
   8 Pb:    1.020721
   9 Cl:   -0.416755
  10 Cl:   -0.419573
  11 Cl:   -0.418190
  12 Cl:   -0.416437
  13 Cl:   -0.423175
  14 Cl:   -0.427680
  15 N :   -0.280658
  16 C :   -0.277667
  17 H :    0.276985
  18 H :    0.277614
  19 H :    0.166821
  20 H :    0.166431
  21 H :    0.164968
  22 H :    0.273177
Sum of atomic charges:   -0.0000000

LOEWDIN ATOMIC CHARGES
----------------------
   0 C :   -0.292831
   1 N :    0.069521
   2 H :    0.126386
   3 H :    0.126309
   4 H :    0.126481
   5 H :    0.154942
   6 H :    0.146861
   7 H :    0.154648
   8 Pb:   -0.519414
   9 Cl:   -0.117918
  10 Cl:   -0.124023
  11 Cl:   -0.127823
  12 Cl:   -0.120689
  13 Cl:   -0.145725
  14 Cl:   -0.164684
  15 N :    0.090221
  16 C :   -0.284666
  17 H :    0.170241
  18 H :    0.173386
  19 H :    0.129175
  20 H :    0.129055
  21 H :    0.128448
  22 H :    0.172099

  Mayer bond orders larger than 0.1
B(  0-C ,  1-N ) :   0.8947 B(  0-C ,  2-H ) :   0.9533 B(  0-C ,  3-H ) :   0.9529
B(  0-C ,  4-H ) :   0.9528 B(  1-N ,  5-H ) :   0.8052 B(  1-N ,  6-H ) :   0.7937
B(  1-N ,  7-H ) :   0.8057 B(  5-H , 11-Cl) :   0.1637 B(  6-H ,  9-Cl) :   0.1768
B(  7-H , 10-Cl) :   0.1638 B(  8-Pb,  9-Cl) :   0.5765 B(  8-Pb, 10-Cl) :   0.5919
B(  8-Pb, 11-Cl) :   0.5880 B(  8-Pb, 12-Cl) :   0.5996 B(  8-Pb, 13-Cl) :   0.5928
B(  8-Pb, 14-Cl) :   0.5791 B( 12-Cl, 17-H ) :   0.1466 B( 13-Cl, 18-H ) :   0.1428
B( 14-Cl, 22-H ) :   0.1594 B( 15-N , 16-C ) :   0.8911 B( 15-N , 17-H ) :   0.8157
B( 15-N , 18-H ) :   0.8191 B( 15-N , 22-H ) :   0.8132 B( 16-C , 19-H ) :   0.9504
B( 16-C , 20-H ) :   0.9505 B( 16-C , 21-H ) :   0.9510

MP2 TOTAL ENERGY:    -3146.412717007 Eh
Dispersion correction           -0.030403139
FINAL SINGLE POINT ENERGY     -3146.443120146900

DIPOLE MOMENT
-------------
                                X             Y             Z
Electronic contribution:     -0.08909       1.01658       0.79491
Nuclear contribution   :     -0.27010      -1.37745      -1.14597
                        -----------------------------------------
Total Dipole Moment    :     -0.35919      -0.36088      -0.35106
                        -----------------------------------------
Magnitude (a.u.)       :      0.61846
Magnitude (Debye)      :      1.57200

                             ****ORCA TERMINATED NORMALLY****
TOTAL RUN TIME: 0 days 0 hours 33 minutes 58 seconds 798 msec
