                         Program Version 3.0.3 - RELEASE   -
|  1> ! PW6B95 def2-TZVP GCP(DFT/TZ) ECP{def2-TZVP} Grid7 MORead
|  2> %pal nprocs 2 end
|  3> %method
|  4>  RunTyp Gradient
|  5>  end
|  6> %maxcore 2000
|  7> %moinp "previous.gbw"
|  8> *xyz 0 1
|  9> Pb 0.346181 0.236505 0.546568
| 10> Cl 2.922982 0.489081 -0.009022
| 11> Cl -0.168883 2.622060 -0.357330
| 12> Cl 0.660293 1.166703 3.020107
| 13> Cs 3.189005 3.744162 2.730506
| 14> *
| 15>
| 16>                          ****END OF INPUT****

CARTESIAN COORDINATES (ANGSTROEM)
---------------------------------
  Pb     0.346181    0.236505    0.546568
  Cl     2.922982    0.489081   -0.009022
  Cl    -0.168883    2.622060   -0.357330
  Cl     0.660293    1.166703    3.020107
  Cs     3.189005    3.744162    2.730506

 Total Charge           Charge          ....    0
 Multiplicity           Mult            ....    1
 Number of Electrons    NEL             ....   82
 Basis Dimension        Dim             ....  190

ORBITAL ENERGIES
----------------

  NO   OCC          E(Eh)            E(eV)
   0   2.0000    -101.848021     -2771.4255
   1   2.0000    -101.837490     -2771.1390
   2   2.0000    -101.835167     -2771.0758
   3   2.0000      -9.488284      -258.1893
   4   2.0000      -9.477415      -257.8936
   5   2.0000      -9.475217      -257.8338
   6   2.0000      -7.217790      -196.4060
   7   2.0000      -7.215545      -196.3450
   8   2.0000      -7.215134      -196.3338
   9   2.0000      -7.207114      -196.1155
  10   2.0000      -7.205058      -196.0596
  11   2.0000      -7.204588      -196.0468
  12   2.0000      -7.204190      -196.0360
  13   2.0000      -7.202220      -195.9824
  14   2.0000      -7.201960      -195.9753
  15   2.0000      -5.545176      -150.8919
  16   2.0000      -3.369364       -91.6851
  17   2.0000      -3.368638       -91.6653
  18   2.0000      -3.367305       -91.6290
  19   2.0000      -1.119142       -30.4534
  20   2.0000      -0.864280       -23.5182
  21   2.0000      -0.863292       -23.4914
  22   2.0000      -0.859050       -23.3759
  23   2.0000      -0.858308       -23.3557
  24   2.0000      -0.857278       -23.3277
  25   2.0000      -0.759933       -20.6788
  26   2.0000      -0.742736       -20.2109
  27   2.0000      -0.735532       -20.0148
  28   2.0000      -0.589521       -16.0417
  29   2.0000      -0.588602       -16.0167
  30   2.0000      -0.584852       -15.9146
  31   2.0000      -0.483071       -13.1450
  32   2.0000      -0.310103        -8.4383
  33   2.0000      -0.303506        -8.2588
  34   2.0000      -0.296469        -8.0673
  35   2.0000      -0.279895        -7.6163
  36   2.0000      -0.277011        -7.5379
  37   2.0000      -0.264682        -7.2024
  38   2.0000      -0.260758        -7.0956
  39   2.0000      -0.256081        -6.9683
  40   2.0000      -0.251072        -6.8320
  41   0.0000      -0.062102        -1.6899
  42   0.0000      -0.016066        -0.4372
  43   0.0000      -0.015357        -0.4179
  44   0.0000      -0.013483        -0.3669
  45   0.0000      -0.010543        -0.2869

MULLIKEN ATOMIC CHARGES
-----------------------
   0 Pb:    0.792290
   1 Cl:   -0.542102
   2 Cl:   -0.519697
   3 Cl:   -0.565299
   4 Cs:    0.834808
Sum of atomic charges:   -0.0000000

LOEWDIN ATOMIC CHARGES
----------------------
   0 Pb:    0.117338
   1 Cl:   -0.236300
   2 Cl:   -0.218592
   3 Cl:   -0.212375
   4 Cs:    0.549928

  Mayer bond orders larger than 0.1
B(  0-Pb,  1-Cl) :   0.6796 B(  0-Pb,  2-Cl) :   0.7449 B(  0-Pb,  3-Cl) :   0.5863
B(  3-Cl,  4-Cs) :   0.1601

FINAL SINGLE POINT ENERGY     -1595.063053173175

DIPOLE MOMENT
-------------
                                X             Y             Z
Electronic contribution:     38.09846      33.98277      45.96428
Nuclear contribution   :    -35.69520     -31.42026     -43.49927
                        -----------------------------------------
Total Dipole Moment    :      2.40326       2.56250       2.46501
                        -----------------------------------------
Magnitude (a.u.)       :      4.29166
Magnitude (Debye)      :     10.90854

                             ****ORCA TERMINATED NORMALLY****
TOTAL RUN TIME: 0 days 0 hours 12 minutes 56 seconds 274 msec
