                         Program Version 3.0.3 - RELEASE   -
|  1> ! RIJCOSX RI-B2PLYP D3BJ def2-TZVP ECP{def2-TZVP} TIGHTSCF Grid5 FinalGrid6 SlowConv MORead
|  2> %method
|  3>  RunTyp Gradient
|  4>  end
|  5> %maxcore 1000
|  6> %moinp "previous.gbw"
|  7> *xyz 0 1
|  8> C -0.310893 -0.745685 -1.457430
|  9> N -0.971488 0.393186 -0.795423
| 10> H -0.778742 0.380655 0.196202
| 11> H -1.972690 0.326143 -0.944360
| 12> H -0.640760 1.261720 -1.191650
| 13> H -0.634781 -1.686880 -1.011230
| 14> H 0.773540 -0.678849 -1.363890
| 15> H -0.565213 -0.766879 -2.518220
| 16> Pb -3.155990 -2.539120 -2.424290
| 17> Cl -0.817626 -3.182780 -2.983350
| 18> Cl -3.353030 -0.185046 -1.827420
| 19> Cl -4.096520 -4.046140 -0.688540
| 20> *
| 21>
| 22>                          ****END OF INPUT****

CARTESIAN COORDINATES (ANGSTROEM)
---------------------------------
  C     -0.310893   -0.745685   -1.457430
  N     -0.971488    0.393186   -0.795423
  H     -0.778742    0.380655    0.196202
  H     -1.972690    0.326143   -0.944360
  H     -0.640760    1.261720   -1.191650
  H     -0.634781   -1.686880   -1.011230
  H      0.773540   -0.678849   -1.363890
  H     -0.565213   -0.766879   -2.518220
  Pb    -3.155990   -2.539120   -2.424290
  Cl    -0.817626   -3.182780   -2.983350
  Cl    -3.353030   -0.185046   -1.827420
  Cl    -4.096520   -4.046140   -0.688540

 Total Charge           Charge          ....    0
 Multiplicity           Mult            ....    1
 Number of Electrons    NEL             ....   92
 Basis Dimension        Dim             ....  259

ORBITAL ENERGIES
----------------

  NO   OCC          E(Eh)            E(eV)
   0   2.0000    -102.874207     -2799.3495
   1   2.0000    -102.831254     -2798.1807
   2   2.0000    -102.822393     -2797.9395
   3   2.0000     -14.989073      -407.8734
   4   2.0000     -10.703458      -291.2559
   5   2.0000      -9.885930      -269.0098
   6   2.0000      -9.840040      -267.7611
   7   2.0000      -9.829743      -267.4809
   8   2.0000      -7.522350      -204.6935
   9   2.0000      -7.521289      -204.6647
  10   2.0000      -7.520602      -204.6460
  11   2.0000      -7.477002      -203.4596
  12   2.0000      -7.475215      -203.4109
  13   2.0000      -7.475043      -203.4063
  14   2.0000      -7.466905      -203.1848
  15   2.0000      -7.464907      -203.1304
  16   2.0000      -7.464786      -203.1271
  17   2.0000      -5.773507      -157.1051
  18   2.0000      -3.546109       -96.4945
  19   2.0000      -3.543991       -96.4369
  20   2.0000      -3.542754       -96.4032
  21   2.0000      -1.186161       -32.2771
  22   2.0000      -0.965271       -26.2664
  23   2.0000      -0.947314       -25.7777
  24   2.0000      -0.942021       -25.6337
  25   2.0000      -0.935169       -25.4472
  26   2.0000      -0.933644       -25.4057
  27   2.0000      -0.904526       -24.6134
  28   2.0000      -0.875643       -23.8275
  29   2.0000      -0.848312       -23.0837
  30   2.0000      -0.834604       -22.7107
  31   2.0000      -0.720848       -19.6153
  32   2.0000      -0.716681       -19.5019
  33   2.0000      -0.612866       -16.6769
  34   2.0000      -0.556793       -15.1511
  35   2.0000      -0.523474       -14.2444
  36   2.0000      -0.520033       -14.1508
  37   2.0000      -0.403616       -10.9830
  38   2.0000      -0.391417       -10.6510
  39   2.0000      -0.388581       -10.5738
  40   2.0000      -0.358181        -9.7466
  41   2.0000      -0.337223        -9.1763
  42   2.0000      -0.331084        -9.0092
  43   2.0000      -0.319911        -8.7052
  44   2.0000      -0.316241        -8.6054
  45   2.0000      -0.249836        -6.7984
  46   0.0000      -0.010019        -0.2726
  47   0.0000       0.003214         0.0875
  48   0.0000       0.051582         1.4036
  49   0.0000       0.059454         1.6178
  50   0.0000       0.063295         1.7224

Dispersion correction            ...

MULLIKEN ATOMIC CHARGES
-----------------------
   0 C :   -0.377025
   1 N :   -0.266596
   2 H :    0.281087
   3 H :    0.285477
   4 H :    0.282450
   5 H :    0.196033
   6 H :    0.166168
   7 H :    0.200551
   8 Pb:    0.763117
   9 Cl:   -0.527078
  10 Cl:   -0.501120
  11 Cl:   -0.503064
Sum of atomic charges:   -0.0000000

LOEWDIN ATOMIC CHARGES
----------------------
   0 C :   -0.351882
   1 N :    0.114722
   2 H :    0.192946
   3 H :    0.068034
   4 H :    0.194411
   5 H :    0.128713
   6 H :    0.124456
   7 H :    0.128412
   8 Pb:   -0.192660
   9 Cl:   -0.169393
  10 Cl:   -0.054156
  11 Cl:   -0.183602

  Mayer bond orders larger than 0.1
B(  0-C ,  1-N ) :   0.8344 B(  0-C ,  5-H ) :   0.9376 B(  0-C ,  6-H ) :   0.9475
B(  0-C ,  7-H ) :   0.9328 B(  1-N ,  2-H ) :   0.8819 B(  1-N ,  3-H ) :   0.7033
B(  1-N ,  4-H ) :   0.8867 B(  3-H , 10-Cl) :   0.2987 B(  8-Pb,  9-Cl) :   0.6587
B(  8-Pb, 10-Cl) :   0.4933 B(  8-Pb, 11-Cl) :   0.7927

MP2 TOTAL ENERGY:    -1669.551978052 Eh
Dispersion correction           -0.013840032
FINAL SINGLE POINT ENERGY     -1669.565818084253

DIPOLE MOMENT
-------------
                                X             Y             Z
Electronic contribution:    -64.43780     -46.18002     -50.30511
Nuclear contribution   :     66.63892      49.98985      51.20301
                        -----------------------------------------
Total Dipole Moment    :      2.20112       3.80983       0.89790
                        -----------------------------------------
Magnitude (a.u.)       :      4.49065
Magnitude (Debye)      :     11.41432

                             ****ORCA TERMINATED NORMALLY****
TOTAL RUN TIME: 0 days 0 hours 13 minutes 53 seconds 931 msec
