                         Program Version 3.0.3 - RELEASE   -
|  1> ! PW6B95 def2-TZVP GCP(DFT/TZ) ECP{def2-TZVP} Grid7 MORead
|  2> %pal nprocs 2 end
|  3> %method
|  4>  RunTyp Gradient
|  5>  end
|  6> %maxcore 2000
|  7> %moinp "previous.gbw"
|  8> *xyz -1 1
|  9> Pb 0.296160 0.288730 0.340033
| 10> Cl 2.919739 0.429641 0.132078
| 11> Cl 0.042340 2.889007 0.000916
| 12> Cl 0.388905 0.553465 2.960344
| 13> *
| 14>
| 15>                          ****END OF INPUT****

CARTESIAN COORDINATES (ANGSTROEM)
---------------------------------
  Pb     0.296160    0.288730    0.340033
  Cl     2.919739    0.429641    0.132078
  Cl     0.042340    2.889007    0.000916
  Cl     0.388905    0.553465    2.960344

 Total Charge           Charge          ....   -1
 Multiplicity           Mult            ....    1
 Number of Electrons    NEL             ....   74
 Basis Dimension        Dim             ....  161

ORBITAL ENERGIES
----------------

  NO   OCC          E(Eh)            E(eV)
   0   2.0000    -101.711888     -2767.7212
   1   2.0000    -101.711886     -2767.7211
   2   2.0000    -101.711822     -2767.7194
   3   2.0000      -9.351909      -254.4784
   4   2.0000      -9.351907      -254.4783
   5   2.0000      -9.351848      -254.4767
   6   2.0000      -7.081787      -192.7052
   7   2.0000      -7.081785      -192.7052
   8   2.0000      -7.081729      -192.7036
   9   2.0000      -7.078785      -192.6235
  10   2.0000      -7.078784      -192.6235
  11   2.0000      -7.078766      -192.6230
  12   2.0000      -7.078765      -192.6230
  13   2.0000      -7.078720      -192.6218
  14   2.0000      -7.078706      -192.6214
  15   2.0000      -5.423982      -147.5940
  16   2.0000      -3.247710       -88.3747
  17   2.0000      -3.247688       -88.3741
  18   2.0000      -3.246172       -88.3328
  19   2.0000      -0.742188       -20.1960
  20   2.0000      -0.742181       -20.1958
  21   2.0000      -0.737231       -20.0611
  22   2.0000      -0.737199       -20.0602
  23   2.0000      -0.735937       -20.0259
  24   2.0000      -0.629276       -17.1235
  25   2.0000      -0.612079       -16.6555
  26   2.0000      -0.611989       -16.6531
  27   2.0000      -0.361227        -9.8295
  28   2.0000      -0.179727        -4.8906
  29   2.0000      -0.179575        -4.8865
  30   2.0000      -0.165726        -4.5096
  31   2.0000      -0.148255        -4.0342
  32   2.0000      -0.148147        -4.0313
  33   2.0000      -0.134497        -3.6599
  34   2.0000      -0.134342        -3.6556
  35   2.0000      -0.133108        -3.6220
  36   2.0000      -0.125290        -3.4093
  37   0.0000       0.107930         2.9369
  38   0.0000       0.108242         2.9454
  39   0.0000       0.112410         3.0588
  40   0.0000       0.230801         6.2804
  41   0.0000       0.236230         6.4281

MULLIKEN ATOMIC CHARGES
-----------------------
   0 Pb:    0.717317
   1 Cl:   -0.572456
   2 Cl:   -0.572282
   3 Cl:   -0.572580
Sum of atomic charges:   -1.0000000

LOEWDIN ATOMIC CHARGES
----------------------
   0 Pb:   -0.070640
   1 Cl:   -0.310057
   2 Cl:   -0.309381
   3 Cl:   -0.309922

  Mayer bond orders larger than 0.1
B(  0-Pb,  1-Cl) :   0.7177 B(  0-Pb,  2-Cl) :   0.7180 B(  0-Pb,  3-Cl) :   0.7176

FINAL SINGLE POINT ENERGY     -1574.928843801392

DIPOLE MOMENT
-------------
                                X             Y             Z
Electronic contribution:    -42.31732     -51.65347     -35.62767
Nuclear contribution   :     40.69984      49.68138      34.26614
                        -----------------------------------------
Total Dipole Moment    :     -1.61748      -1.97209      -1.36153
                        -----------------------------------------
Magnitude (a.u.)       :      2.89122
Magnitude (Debye)      :      7.34888

                             ****ORCA TERMINATED NORMALLY****
TOTAL RUN TIME: 0 days 0 hours 8 minutes 43 seconds 511 msec
