                         Program Version 3.0.3 - RELEASE   -
|  1> ! RIJCOSX RI-B2PLYP D3BJ def2-TZVP ECP{def2-TZVP} TIGHTSCF Grid5 FinalGrid6 MORead
|  2> %method
|  3>  RunTyp Gradient
|  4>  end
|  5> %maxcore 1000
|  6> %moinp "previous.gbw"
|  7> *xyz -2 1
|  8> C 2.821971 3.493173 2.716929
|  9> N 2.031893 2.485380 2.005967
| 10> H 3.493737 3.003675 3.431461
| 11> H 2.156449 4.174155 3.259759
| 12> H 3.419280 4.070497 2.001994
| 13> H 1.424368 1.881241 2.639320
| 14> H 2.617127 1.787701 1.451958
| 15> H 1.353302 2.890520 1.291746
| 16> Pb 0.089422 -0.049802 0.193454
| 17> Cl 3.060917 0.263764 0.239589
| 18> Cl -0.097467 3.026544 -0.098405
| 19> Cl 0.221913 0.592837 3.335561
| 20> Cl -2.930796 -0.224378 0.203325
| 21> Cl 0.010709 -0.484707 -2.805181
| 22> Cl 0.250110 -3.169604 0.538106
| 23> N -1.884966 -2.527607 -1.578982
| 24> C -2.664881 -3.549172 -2.281400
| 25> H -2.474954 -1.829497 -1.031708
| 26> H -1.279571 -1.925402 -2.215561
| 27> H -3.259633 -4.123288 -1.561779
| 28> H -1.991792 -4.230944 -2.813775
| 29> H -3.338231 -3.073756 -3.003955
| 30> H -1.204879 -2.923566 -0.859634
| 31> *
| 32>
| 33>                          ****END OF INPUT****

CARTESIAN COORDINATES (ANGSTROEM)
---------------------------------
  C      2.821971    3.493173    2.716929
  N      2.031893    2.485380    2.005967
  H      3.493737    3.003675    3.431461
  H      2.156449    4.174155    3.259759
  H      3.419280    4.070497    2.001994
  H      1.424368    1.881241    2.639320
  H      2.617127    1.787701    1.451958
  H      1.353302    2.890520    1.291746
  Pb     0.089422   -0.049802    0.193454
  Cl     3.060917    0.263764    0.239589
  Cl    -0.097467    3.026544   -0.098405
  Cl     0.221913    0.592837    3.335561
  Cl    -2.930796   -0.224378    0.203325
  Cl     0.010709   -0.484707   -2.805181
  Cl     0.250110   -3.169604    0.538106
  N     -1.884966   -2.527607   -1.578982
  C     -2.664881   -3.549172   -2.281400
  H     -2.474954   -1.829497   -1.031708
  H     -1.279571   -1.925402   -2.215561
  H     -3.259633   -4.123288   -1.561779
  H     -1.991792   -4.230944   -2.813775
  H     -3.338231   -3.073756   -3.003955
  H     -1.204879   -2.923566   -0.859634

 Total Charge           Charge          ....   -2
 Multiplicity           Mult            ....    1
 Number of Electrons    NEL             ....  164
 Basis Dimension        Dim             ....  468

ORBITAL ENERGIES
----------------

  NO   OCC          E(Eh)            E(eV)
   0   2.0000    -102.586628     -2791.5241
   1   2.0000    -102.583448     -2791.4375
   2   2.0000    -102.581200     -2791.3764
   3   2.0000    -102.580122     -2791.3470
   4   2.0000    -102.577022     -2791.2627
   5   2.0000    -102.575072     -2791.2096
   6   2.0000     -14.703512      -400.1029
   7   2.0000     -14.683245      -399.5514
   8   2.0000     -10.497364      -285.6478
   9   2.0000     -10.486071      -285.3405
  10   2.0000      -9.593180      -261.0437
  11   2.0000      -9.590274      -260.9646
  12   2.0000      -9.587652      -260.8933
  13   2.0000      -9.586478      -260.8613
  14   2.0000      -9.583508      -260.7805
  15   2.0000      -9.581959      -260.7384
  16   2.0000      -7.229631      -196.7283
  17   2.0000      -7.229347      -196.7205
  18   2.0000      -7.228635      -196.7012
  19   2.0000      -7.226715      -196.6489
  20   2.0000      -7.226384      -196.6399
  21   2.0000      -7.225735      -196.6223
  22   2.0000      -7.224067      -196.5769
  23   2.0000      -7.223827      -196.5703
  24   2.0000      -7.223162      -196.5522
  25   2.0000      -7.222838      -196.5434
  26   2.0000      -7.222741      -196.5408
  27   2.0000      -7.222009      -196.5209
  28   2.0000      -7.219965      -196.4652
  29   2.0000      -7.219676      -196.4574
  30   2.0000      -7.218997      -196.4389
  31   2.0000      -7.218262      -196.4189
  32   2.0000      -7.218213      -196.4176
  33   2.0000      -7.217450      -196.3968
  34   2.0000      -5.561074      -151.3245
  35   2.0000      -3.331793       -90.6627
  36   2.0000      -3.331248       -90.6479
  37   2.0000      -3.330541       -90.6286
  38   2.0000      -0.888671       -24.1820
  39   2.0000      -0.873449       -23.7678
  40   2.0000      -0.720253       -19.5991
  41   2.0000      -0.719814       -19.5871
  42   2.0000      -0.719055       -19.5665
  43   2.0000      -0.717545       -19.5254
  44   2.0000      -0.717217       -19.5165
  45   2.0000      -0.639201       -17.3935
  46   2.0000      -0.629581       -17.1318
  47   2.0000      -0.603513       -16.4224
  48   2.0000      -0.600913       -16.3517
  49   2.0000      -0.597309       -16.2536
  50   2.0000      -0.595719       -16.2103
  51   2.0000      -0.594550       -16.1785
  52   2.0000      -0.590190       -16.0599
  53   2.0000      -0.418855       -11.3976
  54   2.0000      -0.418230       -11.3806
  55   2.0000      -0.404968       -11.0198
  56   2.0000      -0.404436       -11.0053
  57   2.0000      -0.370666       -10.0863
  58   2.0000      -0.357026        -9.7152
  59   2.0000      -0.297025        -8.0825
  60   2.0000      -0.296590        -8.0706
  61   2.0000      -0.290295        -7.8993
  62   2.0000      -0.285880        -7.7792
  63   2.0000      -0.285328        -7.7642
  64   2.0000      -0.115671        -3.1476
  65   2.0000      -0.110202        -2.9987
  66   2.0000      -0.107046        -2.9129
  67   2.0000      -0.097185        -2.6445
  68   2.0000      -0.089068        -2.4237
  69   2.0000      -0.087265        -2.3746
  70   2.0000      -0.086449        -2.3524
  71   2.0000      -0.082118        -2.2345
  72   2.0000      -0.081646        -2.2217
  73   2.0000      -0.081082        -2.2064
  74   2.0000      -0.080225        -2.1830
  75   2.0000      -0.078329        -2.1314
  76   2.0000      -0.077196        -2.1006
  77   2.0000      -0.075443        -2.0529
  78   2.0000      -0.075155        -2.0451
  79   2.0000      -0.074309        -2.0221
  80   2.0000      -0.069011        -1.8779
  81   2.0000      -0.043305        -1.1784
  82   0.0000       0.236690         6.4407
  83   0.0000       0.244615         6.6563
  84   0.0000       0.256408         6.9772
  85   0.0000       0.257966         7.0196
  86   0.0000       0.269364         7.3298

Dispersion correction            ...

MULLIKEN ATOMIC CHARGES
-----------------------
   0 C :   -0.269212
   1 N :   -0.295841
   2 H :    0.116755
   3 H :    0.118620
   4 H :    0.115889
   5 H :    0.273727
   6 H :    0.258631
   7 H :    0.258237
   8 Pb:    1.028053
   9 Cl:   -0.687457
  10 Cl:   -0.700888
  11 Cl:   -0.713927
  12 Cl:   -0.693063
  13 Cl:   -0.686274
  14 Cl:   -0.709541
  15 N :   -0.278604
  16 C :   -0.270168
  17 H :    0.251630
  18 H :    0.257674
  19 H :    0.123161
  20 H :    0.123152
  21 H :    0.120733
  22 H :    0.258712
Sum of atomic charges:   -2.0000000

LOEWDIN ATOMIC CHARGES
----------------------
   0 C :   -0.341810
   1 N :    0.030049
   2 H :    0.111467
   3 H :    0.112067
   4 H :    0.110553
   5 H :    0.116001
   6 H :    0.134949
   7 H :    0.135888
   8 Pb:    0.148556
   9 Cl:   -0.469973
  10 Cl:   -0.510734
  11 Cl:   -0.524980
  12 Cl:   -0.499377
  13 Cl:   -0.485751
  14 Cl:   -0.536030
  15 N :    0.040568
  16 C :   -0.335498
  17 H :    0.145064
  18 H :    0.138873
  19 H :    0.113728
  20 H :    0.113850
  21 H :    0.112697
  22 H :    0.139843

  Mayer bond orders larger than 0.1
B(  0-C ,  1-N ) :   0.9413 B(  0-C ,  2-H ) :   0.9610 B(  0-C ,  3-H ) :   0.9605
B(  0-C ,  4-H ) :   0.9602 B(  1-N ,  5-H ) :   0.7215 B(  1-N ,  6-H ) :   0.7550
B(  1-N ,  7-H ) :   0.7539 B(  5-H , 11-Cl) :   0.2870 B(  6-H ,  9-Cl) :   0.2503
B(  7-H , 10-Cl) :   0.2562 B(  8-Pb,  9-Cl) :   0.2992 B(  8-Pb, 10-Cl) :   0.2753
B(  8-Pb, 11-Cl) :   0.2192 B(  8-Pb, 12-Cl) :   0.2858 B(  8-Pb, 13-Cl) :   0.2943
B(  8-Pb, 14-Cl) :   0.2496 B( 12-Cl, 17-H ) :   0.2598 B( 13-Cl, 18-H ) :   0.2627
B( 14-Cl, 22-H ) :   0.2701 B( 15-N , 16-C ) :   0.9387 B( 15-N , 17-H ) :   0.7583
B( 15-N , 18-H ) :   0.7507 B( 15-N , 22-H ) :   0.7472 B( 16-C , 19-H ) :   0.9595
B( 16-C , 20-H ) :   0.9596 B( 16-C , 21-H ) :   0.9600

MP2 TOTAL ENERGY:    -3146.563167187 Eh
Dispersion correction           -0.027736160
FINAL SINGLE POINT ENERGY     -3146.590903347229

DIPOLE MOMENT
-------------
                                X             Y             Z
Electronic contribution:      0.56708      -3.99222      -3.58919
Nuclear contribution   :     -0.62372       3.73092       3.14097
                        -----------------------------------------
Total Dipole Moment    :     -0.05664      -0.26130      -0.44822
                        -----------------------------------------
Magnitude (a.u.)       :      0.52191
Magnitude (Debye)      :      1.32659

                             ****ORCA TERMINATED NORMALLY****
TOTAL RUN TIME: 0 days 0 hours 46 minutes 50 seconds 523 msec
