                         Program Version 3.0.3 - RELEASE   -
|  1> ! RIJCOSX RI-B2PLYP D3BJ def2-TZVP ECP{def2-TZVP} TIGHTSCF Grid5 FinalGrid6 MORead
|  2> %maxcore 4000
|  3> %moinp "previous.gbw"
|  4> *xyz -1 1
|  5> C 3.321334 3.304660 2.430157
|  6> N 2.356571 2.328752 1.891132
|  7> H 3.929482 2.825089 3.202898
|  8> H 2.779051 4.148026 2.867131
|  9> H 3.970752 3.667461 1.628343
| 10> H 1.712427 1.919960 2.626954
| 11> H 2.798301 1.476145 1.466883
| 12> H 1.726191 2.717573 1.143366
| 13> Pb 0.071873 -0.179482 0.732645
| 14> Cl 2.812025 -0.576777 0.778875
| 15> Cl 0.303503 2.899346 -0.212104
| 16> Cl 0.297156 0.686917 3.486322
| 17> Cl -3.298293 -0.218637 0.007460
| 18> Cl -0.045154 -1.139038 -2.136629
| 19> Cl -0.640529 -2.738224 1.880352
| 20> N -2.185808 -3.054212 -0.959335
| 21> C -3.018599 -3.892984 -1.852407
| 22> H -2.697680 -2.199715 -0.614166
| 23> H -1.345672 -2.675212 -1.453465
| 24> H -3.863008 -4.284793 -1.282203
| 25> H -2.403708 -4.719219 -2.215644
| 26> H -3.366846 -3.277457 -2.686457
| 27> H -1.855008 -3.591944 -0.148281
| 28> Cl 3.324615 -4.750586 1.539247
| 29> Cl 0.972185 -5.240639 4.905830
| 30> Pb 0.296176 -5.399045 1.518559
| 31> N 2.161285 -2.658962 3.515767
| 32> C 3.006676 -1.740565 4.311813
| 33> H 2.698023 -3.156655 2.770259
| 34> H 1.390718 -2.163400 3.045648
| 35> H 3.799912 -2.319606 4.793333
| 36> H 2.384520 -1.246095 5.060700
| 37> H 3.427402 -0.991699 3.638613
| 38> H 1.731703 -3.427574 4.095222
| 39> Cl 0.420440 -5.392505 -1.331922
| 40> H -2.444419 -8.567556 -2.232135
| 41> H -0.598109 -7.323819 -1.165277
| 42> H -1.004862 -9.612620 -2.073837
| 43> C -1.775778 -9.065444 -1.523604
| 44> N -1.147567 -8.055720 -0.651573
| 45> Cl -2.561504 -5.927982 1.060071
| 46> H -1.842497 -7.478800 -0.094428
| 47> H -0.483324 -8.457680 0.056334
| 48> H -2.352281 -9.766255 -0.913124
| 49> Cl 0.955681 -8.572009 1.646524
| 50> H -3.020852 1.137851 -3.759427
| 51> H -2.443836 0.935457 -1.388789
| 52> C -2.421148 1.915242 -3.276964
| 53> H -3.072919 2.741318 -2.978333
| 54> N -1.760461 1.345922 -2.088558
| 55> H -1.130632 0.530708 -2.323343
| 56> H -1.666594 2.281032 -3.979276
| 57> H -1.165922 2.035435 -1.571092
| 58> H 3.622704 -8.508951 4.939340
| 59> H 2.344608 -7.817453 2.937850
| 60> C 4.032137 -7.791101 4.222778
| 61> H 4.696529 -8.309487 3.525223
| 62> N 2.932785 -7.146076 3.481813
| 63> H 2.277052 -6.592786 4.110347
| 64> H 4.597499 -7.025510 4.762093
| 65> H 3.269849 -6.425562 2.787786
| 66> *
| 67>
| 68>                          ****END OF INPUT****

CARTESIAN COORDINATES (ANGSTROEM)
---------------------------------
  C      3.321334    3.304660    2.430157
  N      2.356571    2.328752    1.891132
  H      3.929482    2.825089    3.202898
  H      2.779051    4.148026    2.867131
  H      3.970752    3.667461    1.628343
  H      1.712427    1.919960    2.626954
  H      2.798301    1.476145    1.466883
  H      1.726191    2.717573    1.143366
  Pb     0.071873   -0.179482    0.732645
  Cl     2.812025   -0.576777    0.778875
  Cl     0.303503    2.899346   -0.212104
  Cl     0.297156    0.686917    3.486322
  Cl    -3.298293   -0.218637    0.007460
  Cl    -0.045154   -1.139038   -2.136629
  Cl    -0.640529   -2.738224    1.880352
  N     -2.185808   -3.054212   -0.959335
  C     -3.018599   -3.892984   -1.852407
  H     -2.697680   -2.199715   -0.614166
  H     -1.345672   -2.675212   -1.453465
  H     -3.863008   -4.284793   -1.282203
  H     -2.403708   -4.719219   -2.215644
  H     -3.366846   -3.277457   -2.686457
  H     -1.855008   -3.591944   -0.148281
  Cl     3.324615   -4.750586    1.539247
  Cl     0.972185   -5.240639    4.905830
  Pb     0.296176   -5.399045    1.518559
  N      2.161285   -2.658962    3.515767
  C      3.006676   -1.740565    4.311813
  H      2.698023   -3.156655    2.770259
  H      1.390718   -2.163400    3.045648
  H      3.799912   -2.319606    4.793333
  H      2.384520   -1.246095    5.060700
  H      3.427402   -0.991699    3.638613
  H      1.731703   -3.427574    4.095222
  Cl     0.420440   -5.392505   -1.331922
  H     -2.444419   -8.567556   -2.232135
  H     -0.598109   -7.323819   -1.165277
  H     -1.004862   -9.612620   -2.073837
  C     -1.775778   -9.065444   -1.523604
  N     -1.147567   -8.055720   -0.651573
  Cl    -2.561504   -5.927982    1.060071
  H     -1.842497   -7.478800   -0.094428
  H     -0.483324   -8.457680    0.056334
  H     -2.352281   -9.766255   -0.913124
  Cl     0.955681   -8.572009    1.646524
  H     -3.020852    1.137851   -3.759427
  H     -2.443836    0.935457   -1.388789
  C     -2.421148    1.915242   -3.276964
  H     -3.072919    2.741318   -2.978333
  N     -1.760461    1.345922   -2.088558
  H     -1.130632    0.530708   -2.323343
  H     -1.666594    2.281032   -3.979276
  H     -1.165922    2.035435   -1.571092
  H      3.622704   -8.508951    4.939340
  H      2.344608   -7.817453    2.937850
  C      4.032137   -7.791101    4.222778
  H      4.696529   -8.309487    3.525223
  N      2.932785   -7.146076    3.481813
  H      2.277052   -6.592786    4.110347
  H      4.597499   -7.025510    4.762093
  H      3.269849   -6.425562    2.787786

 Total Charge           Charge          ....   -1
 Multiplicity           Mult            ....    1
 Number of Electrons    NEL             ....  346
 Basis Dimension        Dim             .... 1095

ORBITAL ENERGIES
----------------

  NO   OCC          E(Eh)            E(eV)
   0   2.0000    -102.758642     -2796.2048
   1   2.0000    -102.739355     -2795.6800
   2   2.0000    -102.734937     -2795.5598
   3   2.0000    -102.734227     -2795.5405
   4   2.0000    -102.732590     -2795.4959
   5   2.0000    -102.732429     -2795.4915
   6   2.0000    -102.728629     -2795.3881
   7   2.0000    -102.728269     -2795.3783
   8   2.0000    -102.725673     -2795.3077
   9   2.0000    -102.717476     -2795.0846
  10   2.0000    -102.713902     -2794.9874
  11   2.0000     -14.851957      -404.1423
  12   2.0000     -14.839398      -403.8006
  13   2.0000     -14.831956      -403.5980
  14   2.0000     -14.831080      -403.5742
  15   2.0000     -14.830505      -403.5586
  16   2.0000     -14.830391      -403.5555
  17   2.0000     -10.618881      -288.9544
  18   2.0000     -10.611868      -288.7636
  19   2.0000     -10.603855      -288.5456
  20   2.0000     -10.603519      -288.5364
  21   2.0000     -10.583359      -287.9878
  22   2.0000     -10.582017      -287.9513
  23   2.0000      -9.766123      -265.7497
  24   2.0000      -9.746115      -265.2053
  25   2.0000      -9.741289      -265.0739
  26   2.0000      -9.741049      -265.0674
  27   2.0000      -9.739803      -265.0335
  28   2.0000      -9.739800      -265.0334
  29   2.0000      -9.735828      -264.9253
  30   2.0000      -9.735404      -264.9138
  31   2.0000      -9.732744      -264.8414
  32   2.0000      -9.724334      -264.6126
  33   2.0000      -9.720860      -264.5180
  34   2.0000      -7.402846      -201.4417
  35   2.0000      -7.401640      -201.4089
  36   2.0000      -7.401555      -201.4065
  37   2.0000      -7.382936      -200.8999
  38   2.0000      -7.381847      -200.8703
  39   2.0000      -7.381432      -200.8590
  40   2.0000      -7.378107      -200.7685
  41   2.0000      -7.377534      -200.7529
  42   2.0000      -7.377087      -200.7407
  43   2.0000      -7.377047      -200.7397
  44   2.0000      -7.376651      -200.7289
  45   2.0000      -7.376544      -200.7260
  46   2.0000      -7.376187      -200.7163
  47   2.0000      -7.376178      -200.7160
  48   2.0000      -7.375973      -200.7104
  49   2.0000      -7.375946      -200.7097
  50   2.0000      -7.375313      -200.6925
  51   2.0000      -7.375295      -200.6920
  52   2.0000      -7.372007      -200.6025
  53   2.0000      -7.371929      -200.6004
  54   2.0000      -7.371921      -200.6002
  55   2.0000      -7.371408      -200.5862
  56   2.0000      -7.371367      -200.5851
  57   2.0000      -7.370888      -200.5721
  58   2.0000      -7.368977      -200.5201
  59   2.0000      -7.368812      -200.5156
  60   2.0000      -7.368395      -200.5042
  61   2.0000      -7.360594      -200.2919
  62   2.0000      -7.360306      -200.2841
  63   2.0000      -7.360188      -200.2809
  64   2.0000      -7.357153      -200.1983
  65   2.0000      -7.356796      -200.1886
  66   2.0000      -7.356706      -200.1862
  67   2.0000      -5.709439      -155.3617
  68   2.0000      -5.703070      -155.1884
  69   2.0000      -3.480348       -94.7051
  70   2.0000      -3.479386       -94.6789
  71   2.0000      -3.479111       -94.6714
  72   2.0000      -3.474406       -94.5434
  73   2.0000      -3.472869       -94.5016
  74   2.0000      -3.472562       -94.4932
  75   2.0000      -1.031542       -28.0697
  76   2.0000      -1.022885       -27.8341
  77   2.0000      -1.013999       -27.5923
  78   2.0000      -1.013681       -27.5837
  79   2.0000      -1.009930       -27.4816
  80   2.0000      -1.009748       -27.4767
  81   2.0000      -0.871327       -23.7100
  82   2.0000      -0.868893       -23.6438
  83   2.0000      -0.867837       -23.6150
  84   2.0000      -0.867258       -23.5993
  85   2.0000      -0.866141       -23.5689
  86   2.0000      -0.865497       -23.5514
  87   2.0000      -0.863842       -23.5063
  88   2.0000      -0.862205       -23.4618
  89   2.0000      -0.861252       -23.4358
  90   2.0000      -0.859783       -23.3959
  91   2.0000      -0.780217       -21.2308
  92   2.0000      -0.770907       -20.9775
  93   2.0000      -0.768613       -20.9150
  94   2.0000      -0.759772       -20.6745
  95   2.0000      -0.759039       -20.6545
  96   2.0000      -0.756073       -20.5738
  97   2.0000      -0.751717       -20.4553
  98   2.0000      -0.749410       -20.3925
  99   2.0000      -0.748449       -20.3663
 100   2.0000      -0.747325       -20.3358
 101   2.0000      -0.744850       -20.2684
 102   2.0000      -0.742262       -20.1980
 103   2.0000      -0.741761       -20.1843
 104   2.0000      -0.736619       -20.0444
 105   2.0000      -0.734956       -19.9992
 106   2.0000      -0.726220       -19.7614
 107   2.0000      -0.725747       -19.7486
 108   2.0000      -0.563656       -15.3379
 109   2.0000      -0.556714       -15.1490
 110   2.0000      -0.556355       -15.1392
 111   2.0000      -0.549114       -14.9422
 112   2.0000      -0.548856       -14.9351
 113   2.0000      -0.548029       -14.9126
 114   2.0000      -0.546820       -14.8797
 115   2.0000      -0.545223       -14.8363
 116   2.0000      -0.542204       -14.7541
 117   2.0000      -0.541474       -14.7343
 118   2.0000      -0.533515       -14.5177
 119   2.0000      -0.533337       -14.5128
 120   2.0000      -0.501991       -13.6599
 121   2.0000      -0.494581       -13.4582
 122   2.0000      -0.484156       -13.1746
 123   2.0000      -0.484032       -13.1712
 124   2.0000      -0.468488       -12.7482
 125   2.0000      -0.465972       -12.6797
 126   2.0000      -0.452119       -12.3028
 127   2.0000      -0.436806       -11.8861
 128   2.0000      -0.426510       -11.6059
 129   2.0000      -0.424295       -11.5456
 130   2.0000      -0.420600       -11.4451
 131   2.0000      -0.417561       -11.3624
 132   2.0000      -0.411614       -11.2006
 133   2.0000      -0.411492       -11.1973
 134   2.0000      -0.409972       -11.1559
 135   2.0000      -0.409156       -11.1337
 136   2.0000      -0.399017       -10.8578
 137   2.0000      -0.397553       -10.8180
 138   2.0000      -0.392377       -10.6771
 139   2.0000      -0.391185       -10.6447
 140   2.0000      -0.286876        -7.8063
 141   2.0000      -0.273937        -7.4542
 142   2.0000      -0.269320        -7.3286
 143   2.0000      -0.262647        -7.1470
 144   2.0000      -0.257595        -7.0095
 145   2.0000      -0.255198        -6.9443
 146   2.0000      -0.252530        -6.8717
 147   2.0000      -0.247498        -6.7348
 148   2.0000      -0.245041        -6.6679
 149   2.0000      -0.243254        -6.6193
 150   2.0000      -0.240397        -6.5415
 151   2.0000      -0.238630        -6.4934
 152   2.0000      -0.237341        -6.4584
 153   2.0000      -0.235772        -6.4157
 154   2.0000      -0.234920        -6.3925
 155   2.0000      -0.233520        -6.3544
 156   2.0000      -0.231699        -6.3048
 157   2.0000      -0.230830        -6.2812
 158   2.0000      -0.229321        -6.2401
 159   2.0000      -0.228521        -6.2184
 160   2.0000      -0.227722        -6.1966
 161   2.0000      -0.227180        -6.1819
 162   2.0000      -0.226089        -6.1522
 163   2.0000      -0.222332        -6.0500
 164   2.0000      -0.221657        -6.0316
 165   2.0000      -0.221592        -6.0298
 166   2.0000      -0.221346        -6.0231
 167   2.0000      -0.220043        -5.9877
 168   2.0000      -0.217979        -5.9315
 169   2.0000      -0.216251        -5.8845
 170   2.0000      -0.213807        -5.8180
 171   2.0000      -0.193697        -5.2708
 172   2.0000      -0.184316        -5.0155
 173   0.0000       0.097588         2.6555
 174   0.0000       0.107086         2.9140
 175   0.0000       0.115487         3.1426
 176   0.0000       0.120631         3.2825
 177   0.0000       0.122941         3.3454

MULLIKEN ATOMIC CHARGES
-----------------------
   0 C :   -0.251399
   1 N :   -0.295277
   2 H :    0.135803
   3 H :    0.142203
   4 H :    0.139625
   5 H :    0.271116
   6 H :    0.264859
   7 H :    0.289837
   8 Pb:    0.989430
   9 Cl:   -0.604183
  10 Cl:   -0.712218
  11 Cl:   -0.649471
  12 Cl:   -0.703633
  13 Cl:   -0.666355
  14 Cl:   -0.585234
  15 N :   -0.269384
  16 C :   -0.242519
  17 H :    0.273692
  18 H :    0.303513
  19 H :    0.149051
  20 H :    0.136963
  21 H :    0.122062
  22 H :    0.289293
  23 Cl:   -0.666578
  24 Cl:   -0.703561
  25 Pb:    0.994912
  26 N :   -0.280104
  27 C :   -0.236198
  28 H :    0.295152
  29 H :    0.293130
  30 H :    0.121447
  31 H :    0.150739
  32 H :    0.138233
  33 H :    0.272429
  34 Cl:   -0.618990
  35 H :    0.138636
  36 H :    0.265539
  37 H :    0.143119
  38 C :   -0.250229
  39 N :   -0.284889
  40 Cl:   -0.655017
  41 H :    0.274372
  42 H :    0.279393
  43 H :    0.143401
  44 Cl:   -0.717442
  45 H :    0.134567
  46 H :    0.270963
  47 C :   -0.245666
  48 H :    0.136800
  49 N :   -0.285264
  50 H :    0.265852
  51 H :    0.136441
  52 H :    0.272964
  53 H :    0.136688
  54 H :    0.280337
  55 C :   -0.245449
  56 H :    0.136894
  57 N :   -0.285593
  58 H :    0.268877
  59 H :    0.135402
  60 H :    0.260923
Sum of atomic charges:   -1.0000000

LOEWDIN ATOMIC CHARGES
----------------------
   0 C :   -0.298041
   1 N :    0.061728
   2 H :    0.117266
   3 H :    0.119663
   4 H :    0.117977
   5 H :    0.150489
   6 H :    0.156724
   7 H :    0.134566
   8 Pb:    0.066216
   9 Cl:   -0.336101
  10 Cl:   -0.502902
  11 Cl:   -0.414186
  12 Cl:   -0.541108
  13 Cl:   -0.409968
  14 Cl:   -0.154112
  15 N :    0.093678
  16 C :   -0.302681
  17 H :    0.156865
  18 H :    0.156365
  19 H :    0.116872
  20 H :    0.112414
  21 H :    0.112284
  22 H :    0.172630
  23 Cl:   -0.442718
  24 Cl:   -0.545051
  25 Pb:    0.115392
  26 N :    0.091299
  27 C :   -0.299760
  28 H :    0.151341
  29 H :    0.174929
  30 H :    0.112434
  31 H :    0.118706
  32 H :    0.112041
  33 H :    0.152101
  34 Cl:   -0.380371
  35 H :    0.118588
  36 H :    0.159075
  37 H :    0.119136
  38 C :   -0.294840
  39 N :    0.070561
  40 Cl:   -0.419078
  41 H :    0.151601
  42 H :    0.156227
  43 H :    0.119960
  44 Cl:   -0.515119
  45 H :    0.118166
  46 H :    0.137120
  47 C :   -0.300404
  48 H :    0.117141
  49 N :    0.060746
  50 H :    0.137974
  51 H :    0.117036
  52 H :    0.154678
  53 H :    0.117506
  54 H :    0.139064
  55 C :   -0.299996
  56 H :    0.117155
  57 N :    0.061025
  58 H :    0.143668
  59 H :    0.118103
  60 H :    0.147926

  Mayer bond orders larger than 0.1
B(  0-C ,  1-N ) :   0.9343 B(  0-C ,  2-H ) :   0.9752 B(  0-C ,  3-H ) :   0.9747
B(  0-C ,  4-H ) :   0.9746 B(  1-N ,  5-H ) :   0.7883 B(  1-N ,  6-H ) :   0.8182
B(  1-N ,  7-H ) :   0.7829 B(  5-H , 11-Cl) :   0.2248 B(  6-H ,  9-Cl) :   0.1836
B(  7-H , 10-Cl) :   0.2038 B(  8-Pb,  9-Cl) :   0.4919 B(  8-Pb, 10-Cl) :   0.1857
B(  8-Pb, 11-Cl) :   0.3732 B(  8-Pb, 12-Cl) :   0.1384 B(  8-Pb, 13-Cl) :   0.2578
B(  8-Pb, 14-Cl) :   0.2771 B( 10-Cl, 52-H ) :   0.1488 B( 12-Cl, 17-H ) :   0.1927
B( 12-Cl, 46-H ) :   0.2520 B( 13-Cl, 18-H ) :   0.1287 B( 13-Cl, 50-H ) :   0.2351
B( 14-Cl, 25-Pb) :   0.3289 B( 15-N , 16-C ) :   0.9309 B( 15-N , 17-H ) :   0.8097
B( 15-N , 18-H ) :   0.8207 B( 15-N , 22-H ) :   0.8700 B( 16-C , 19-H ) :   0.9695
B( 16-C , 20-H ) :   0.9666 B( 16-C , 21-H ) :   0.9703 B( 23-Cl, 25-Pb) :   0.2592
B( 23-Cl, 28-H ) :   0.1542 B( 23-Cl, 60-H ) :   0.2182 B( 24-Cl, 25-Pb) :   0.1452
B( 24-Cl, 33-H ) :   0.1985 B( 24-Cl, 58-H ) :   0.2406 B( 25-Pb, 34-Cl) :   0.4624
B( 25-Pb, 40-Cl) :   0.3430 B( 25-Pb, 44-Cl) :   0.1836 B( 26-N , 27-C ) :   0.9262
B( 26-N , 28-H ) :   0.8137 B( 26-N , 29-H ) :   0.8690 B( 26-N , 33-H ) :   0.8067
B( 27-C , 30-H ) :   0.9711 B( 27-C , 31-H ) :   0.9693 B( 27-C , 32-H ) :   0.9658
B( 34-Cl, 36-H ) :   0.1942 B( 35-H , 38-C ) :   0.9742 B( 36-H , 39-N ) :   0.8140
B( 37-H , 38-C ) :   0.9734 B( 38-C , 39-N ) :   0.9319 B( 38-C , 43-H ) :   0.9740
B( 39-N , 41-H ) :   0.7849 B( 39-N , 42-H ) :   0.8132 B( 40-Cl, 41-H ) :   0.2245
B( 42-H , 44-Cl) :   0.1723 B( 44-Cl, 54-H ) :   0.1761 B( 45-H , 47-C ) :   0.9750
B( 46-H , 49-N ) :   0.7689 B( 47-C , 48-H ) :   0.9757 B( 47-C , 49-N ) :   0.9402
B( 47-C , 51-H ) :   0.9749 B( 49-N , 50-H ) :   0.7823 B( 49-N , 52-H ) :   0.8304
B( 53-H , 55-C ) :   0.9758 B( 54-H , 57-N ) :   0.8081 B( 55-C , 56-H ) :   0.9748
B( 55-C , 57-N ) :   0.9377 B( 55-C , 59-H ) :   0.9751 B( 57-N , 58-H ) :   0.7785
B( 57-N , 60-H ) :   0.7992

MP2 TOTAL ENERGY:    -6025.865257936 Eh
Dispersion correction           -0.080182919
FINAL SINGLE POINT ENERGY     -6025.945440854450

DIPOLE MOMENT
-------------
                                X             Y             Z
Electronic contribution:    -27.62619       9.90016      34.80104
Nuclear contribution   :     28.83585     -10.31717     -36.33032
                        -----------------------------------------
Total Dipole Moment    :      1.20966      -0.41701      -1.52928
                        -----------------------------------------
Magnitude (a.u.)       :      1.99396
Magnitude (Debye)      :      5.06825

                             ****ORCA TERMINATED NORMALLY****
TOTAL RUN TIME: 0 days 1 hours 42 minutes 52 seconds 581 msec
