                         Program Version 3.0.3 - RELEASE   -
|  1> ! PW6B95 def2-TZVP GCP(DFT/TZ) ECP{def2-TZVP} Grid7 MORead
|  2> %pal nprocs 2 end
|  3> %method
|  4>  RunTyp Gradient
|  5>  end
|  6> %maxcore 2000
|  7> %moinp "previous.gbw"
|  8> *xyz 0 1
|  9> Pb 0.486925 0.231189 0.384745
| 10> Cl 2.946612 1.145320 0.253045
| 11> Cl -0.497623 2.683265 0.134917
| 12> Cl 0.509594 0.468451 2.919665
| 13> Cs 3.731145 4.478162 3.240117
| 14> *
| 15>
| 16>                          ****END OF INPUT****

CARTESIAN COORDINATES (ANGSTROEM)
---------------------------------
  Pb     0.486925    0.231189    0.384745
  Cl     2.946612    1.145320    0.253045
  Cl    -0.497623    2.683265    0.134917
  Cl     0.509594    0.468451    2.919665
  Cs     3.731145    4.478162    3.240117

 Total Charge           Charge          ....    0
 Multiplicity           Mult            ....    1
 Number of Electrons    NEL             ....   82
 Basis Dimension        Dim             ....  190

ORBITAL ENERGIES
----------------

  NO   OCC          E(Eh)            E(eV)
   0   2.0000    -101.821132     -2770.6939
   1   2.0000    -101.820781     -2770.6843
   2   2.0000    -101.806404     -2770.2931
   3   2.0000      -9.461384      -257.4574
   4   2.0000      -9.461369      -257.4569
   5   2.0000      -9.446328      -257.0476
   6   2.0000      -7.191161      -195.6814
   7   2.0000      -7.191065      -195.6788
   8   2.0000      -7.188465      -195.6081
   9   2.0000      -7.188297      -195.6035
  10   2.0000      -7.188231      -195.6017
  11   2.0000      -7.188128      -195.5989
  12   2.0000      -7.176184      -195.2739
  13   2.0000      -7.173293      -195.1952
  14   2.0000      -7.173150      -195.1913
  15   2.0000      -5.519980      -150.2063
  16   2.0000      -3.344136       -90.9986
  17   2.0000      -3.343659       -90.9856
  18   2.0000      -3.342006       -90.9406
  19   2.0000      -1.153943       -31.4004
  20   2.0000      -0.841003       -22.8849
  21   2.0000      -0.838702       -22.8222
  22   2.0000      -0.833955       -22.6931
  23   2.0000      -0.833501       -22.6807
  24   2.0000      -0.832132       -22.6435
  25   2.0000      -0.738231       -20.0883
  26   2.0000      -0.720931       -19.6175
  27   2.0000      -0.708788       -19.2871
  28   2.0000      -0.623068       -16.9546
  29   2.0000      -0.622847       -16.9485
  30   2.0000      -0.619893       -16.8681
  31   2.0000      -0.460310       -12.5257
  32   2.0000      -0.288412        -7.8481
  33   2.0000      -0.281616        -7.6632
  34   2.0000      -0.273701        -7.4478
  35   2.0000      -0.255802        -6.9607
  36   2.0000      -0.254613        -6.9284
  37   2.0000      -0.242038        -6.5862
  38   2.0000      -0.233269        -6.3476
  39   2.0000      -0.231478        -6.2988
  40   2.0000      -0.227190        -6.1822
  41   0.0000      -0.083854        -2.2818
  42   0.0000      -0.029707        -0.8084
  43   0.0000      -0.029136        -0.7928
  44   0.0000      -0.028887        -0.7861
  45   0.0000      -0.021766        -0.5923

MULLIKEN ATOMIC CHARGES
-----------------------
   0 Pb:    0.774403
   1 Cl:   -0.573553
   2 Cl:   -0.558017
   3 Cl:   -0.537377
   4 Cs:    0.894543
Sum of atomic charges:   -0.0000000

LOEWDIN ATOMIC CHARGES
----------------------
   0 Pb:    0.015187
   1 Cl:   -0.258752
   2 Cl:   -0.286352
   3 Cl:   -0.214460
   4 Cs:    0.744377

  Mayer bond orders larger than 0.1
B(  0-Pb,  1-Cl) :   0.6310 B(  0-Pb,  2-Cl) :   0.7024 B(  0-Pb,  3-Cl) :   0.7262

FINAL SINGLE POINT ENERGY     -1595.032805459261

DIPOLE MOMENT
-------------
                                X             Y             Z
Electronic contribution:     68.99375      56.38197      43.66254
Nuclear contribution   :    -64.78735     -52.25331     -40.46980
                        -----------------------------------------
Total Dipole Moment    :      4.20641       4.12866       3.19274
                        -----------------------------------------
Magnitude (a.u.)       :      6.70323
Magnitude (Debye)      :     17.03826

                             ****ORCA TERMINATED NORMALLY****
TOTAL RUN TIME: 0 days 0 hours 12 minutes 14 seconds 364 msec
