                         Program Version 3.0.3 - RELEASE   -
|  1> ! RIJCOSX RI-B2PLYP D3BJ def2-TZVP ECP{def2-TZVP} TIGHTSCF Grid5 FinalGrid6 MORead
|  2> %method
|  3>  RunTyp Gradient
|  4>  end
|  5> %maxcore 1000
|  6> %moinp "previous.gbw"
|  7> *xyz 0 1
|  8> C 2.891451 3.575826 2.778059
|  9> N 2.089424 2.555032 2.059582
| 10> H 3.558472 3.076137 3.484362
| 11> H 2.218727 4.247132 3.316750
| 12> H 3.479382 4.144646 2.054078
| 13> H 1.492676 1.958835 2.673590
| 14> H 2.651801 1.866309 1.511973
| 15> H 1.418732 2.942131 1.359080
| 16> Pb 0.225085 0.062600 0.235009
| 17> Cl 2.795371 0.288125 0.354548
| 18> Cl -0.044995 2.689263 -0.140241
| 19> Cl 0.201892 0.330498 2.813589
| 20> Cl -2.412208 -0.126925 0.342184
| 21> Cl 0.225734 -0.324788 -2.252553
| 22> Cl 0.243100 -2.566407 0.682424
| 23> N -1.944119 -2.595072 -1.633806
| 24> C -2.725500 -3.643046 -2.335777
| 25> H -2.519034 -1.905375 -1.102173
| 26> H -1.352579 -2.002501 -2.255638
| 27> H -3.308461 -4.206070 -1.603344
| 28> H -2.038395 -4.314606 -2.855607
| 29> H -3.396098 -3.169682 -3.056568
| 30> H -1.270867 -2.959590 -0.921865
| 31> *
| 32>
| 33>                          ****END OF INPUT****

CARTESIAN COORDINATES (ANGSTROEM)
---------------------------------
  C      2.891451    3.575826    2.778059
  N      2.089424    2.555032    2.059582
  H      3.558472    3.076137    3.484362
  H      2.218727    4.247132    3.316750
  H      3.479382    4.144646    2.054078
  H      1.492676    1.958835    2.673590
  H      2.651801    1.866309    1.511973
  H      1.418732    2.942131    1.359080
  Pb     0.225085    0.062600    0.235009
  Cl     2.795371    0.288125    0.354548
  Cl    -0.044995    2.689263   -0.140241
  Cl     0.201892    0.330498    2.813589
  Cl    -2.412208   -0.126925    0.342184
  Cl     0.225734   -0.324788   -2.252553
  Cl     0.243100   -2.566407    0.682424
  N     -1.944119   -2.595072   -1.633806
  C     -2.725500   -3.643046   -2.335777
  H     -2.519034   -1.905375   -1.102173
  H     -1.352579   -2.002501   -2.255638
  H     -3.308461   -4.206070   -1.603344
  H     -2.038395   -4.314606   -2.855607
  H     -3.396098   -3.169682   -3.056568
  H     -1.270867   -2.959590   -0.921865

 Total Charge           Charge          ....    0
 Multiplicity           Mult            ....    1
 Number of Electrons    NEL             ....  162
 Basis Dimension        Dim             ....  468

ORBITAL ENERGIES
----------------

  NO   OCC          E(Eh)            E(eV)
   0   2.0000    -102.879789     -2799.5014
   1   2.0000    -102.873567     -2799.3321
   2   2.0000    -102.865742     -2799.1191
   3   2.0000    -102.860563     -2798.9782
   4   2.0000    -102.856716     -2798.8735
   5   2.0000    -102.856234     -2798.8604
   6   2.0000     -14.971758      -407.4022
   7   2.0000     -14.937882      -406.4804
   8   2.0000     -10.715084      -291.5722
   9   2.0000     -10.697345      -291.0896
  10   2.0000      -9.886398      -269.0226
  11   2.0000      -9.880766      -268.8693
  12   2.0000      -9.872465      -268.6434
  13   2.0000      -9.866810      -268.4896
  14   2.0000      -9.862798      -268.3804
  15   2.0000      -9.862338      -268.3678
  16   2.0000      -7.524583      -204.7543
  17   2.0000      -7.521189      -204.6619
  18   2.0000      -7.520829      -204.6522
  19   2.0000      -7.518632      -204.5924
  20   2.0000      -7.515824      -204.5160
  21   2.0000      -7.515195      -204.4988
  22   2.0000      -7.510474      -204.3704
  23   2.0000      -7.507415      -204.2871
  24   2.0000      -7.506904      -204.2732
  25   2.0000      -7.504663      -204.2123
  26   2.0000      -7.501919      -204.1376
  27   2.0000      -7.501398      -204.1234
  28   2.0000      -7.500777      -204.1065
  29   2.0000      -7.500209      -204.0911
  30   2.0000      -7.497844      -204.0267
  31   2.0000      -7.497475      -204.0167
  32   2.0000      -7.497392      -204.0144
  33   2.0000      -7.496967      -204.0028
  34   2.0000      -5.836738      -158.8257
  35   2.0000      -3.609613       -98.2226
  36   2.0000      -3.609128       -98.2094
  37   2.0000      -3.608821       -98.2010
  38   2.0000      -1.145301       -31.1652
  39   2.0000      -1.122502       -30.5448
  40   2.0000      -1.013904       -27.5897
  41   2.0000      -1.008592       -27.4452
  42   2.0000      -0.996017       -27.1030
  43   2.0000      -0.994869       -27.0718
  44   2.0000      -0.994525       -27.0624
  45   2.0000      -0.908317       -24.7166
  46   2.0000      -0.892334       -24.2816
  47   2.0000      -0.883895       -24.0520
  48   2.0000      -0.874931       -23.8081
  49   2.0000      -0.865737       -23.5579
  50   2.0000      -0.860505       -23.4155
  51   2.0000      -0.857969       -23.3465
  52   2.0000      -0.844531       -22.9809
  53   2.0000      -0.672435       -18.2979
  54   2.0000      -0.670895       -18.2560
  55   2.0000      -0.651364       -17.7245
  56   2.0000      -0.650093       -17.6899
  57   2.0000      -0.606059       -16.4917
  58   2.0000      -0.587136       -15.9768
  59   2.0000      -0.574788       -15.6408
  60   2.0000      -0.525430       -14.2977
  61   2.0000      -0.525068       -14.2878
  62   2.0000      -0.509986       -13.8774
  63   2.0000      -0.508860       -13.8468
  64   2.0000      -0.419199       -11.4070
  65   2.0000      -0.413886       -11.2624
  66   2.0000      -0.407269       -11.0823
  67   2.0000      -0.378761       -10.3066
  68   2.0000      -0.372915       -10.1475
  69   2.0000      -0.367695       -10.0055
  70   2.0000      -0.360105        -9.7990
  71   2.0000      -0.354441        -9.6448
  72   2.0000      -0.349864        -9.5203
  73   2.0000      -0.348494        -9.4830
  74   2.0000      -0.347937        -9.4679
  75   2.0000      -0.342172        -9.3110
  76   2.0000      -0.338131        -9.2010
  77   2.0000      -0.336292        -9.1510
  78   2.0000      -0.335286        -9.1236
  79   2.0000      -0.333320        -9.0701
  80   2.0000      -0.327010        -8.8984
  81   0.0000      -0.121239        -3.2991
  82   0.0000       0.032499         0.8843
  83   0.0000       0.048786         1.3275
  84   0.0000       0.078327         2.1314
  85   0.0000       0.081338         2.2133

Dispersion correction            ...

MULLIKEN ATOMIC CHARGES
-----------------------
   0 C :   -0.278290
   1 N :   -0.294318
   2 H :    0.158686
   3 H :    0.159155
   4 H :    0.159207
   5 H :    0.272833
   6 H :    0.278588
   7 H :    0.269515
   8 Pb:    1.027294
   9 Cl:   -0.410108
  10 Cl:   -0.430708
  11 Cl:   -0.401335
  12 Cl:   -0.435418
  13 Cl:   -0.401909
  14 Cl:   -0.443386
  15 N :   -0.279277
  16 C :   -0.278323
  17 H :    0.278216
  18 H :    0.278979
  19 H :    0.167807
  20 H :    0.165341
  21 H :    0.164102
  22 H :    0.273350
Sum of atomic charges:    0.0000000

LOEWDIN ATOMIC CHARGES
----------------------
   0 C :   -0.294601
   1 N :    0.064138
   2 H :    0.125926
   3 H :    0.125828
   4 H :    0.126059
   5 H :    0.150813
   6 H :    0.136126
   7 H :    0.152576
   8 Pb:   -0.529269
   9 Cl:   -0.086597
  10 Cl:   -0.158259
  11 Cl:   -0.100480
  12 Cl:   -0.164848
  13 Cl:   -0.075731
  14 Cl:   -0.178523
  15 N :    0.089941
  16 C :   -0.285280
  17 H :    0.172705
  18 H :    0.174700
  19 H :    0.129598
  20 H :    0.128618
  21 H :    0.127967
  22 H :    0.168594

  Mayer bond orders larger than 0.1
B(  0-C ,  1-N ) :   0.8951 B(  0-C ,  2-H ) :   0.9537 B(  0-C ,  3-H ) :   0.9534
B(  0-C ,  4-H ) :   0.9533 B(  1-N ,  5-H ) :   0.8025 B(  1-N ,  6-H ) :   0.7844
B(  1-N ,  7-H ) :   0.8030 B(  5-H , 11-Cl) :   0.1657 B(  6-H ,  9-Cl) :   0.1841
B(  7-H , 10-Cl) :   0.1703 B(  8-Pb,  9-Cl) :   0.5915 B(  8-Pb, 10-Cl) :   0.5775
B(  8-Pb, 11-Cl) :   0.5958 B(  8-Pb, 12-Cl) :   0.5769 B(  8-Pb, 13-Cl) :   0.6344
B(  8-Pb, 14-Cl) :   0.5684 B( 12-Cl, 17-H ) :   0.1476 B( 13-Cl, 18-H ) :   0.1219
B( 14-Cl, 22-H ) :   0.1679 B( 15-N , 16-C ) :   0.8912 B( 15-N , 17-H ) :   0.8160
B( 15-N , 18-H ) :   0.8281 B( 15-N , 22-H ) :   0.8074 B( 16-C , 19-H ) :   0.9502
B( 16-C , 20-H ) :   0.9506 B( 16-C , 21-H ) :   0.9510

MP2 TOTAL ENERGY:    -3146.409520956 Eh
Dispersion correction           -0.030593138
FINAL SINGLE POINT ENERGY     -3146.440114094053

DIPOLE MOMENT
-------------
                                X             Y             Z
Electronic contribution:      7.67824       3.17228      -3.82238
Nuclear contribution   :     -7.92267      -3.61959       3.21634
                        -----------------------------------------
Total Dipole Moment    :     -0.24443      -0.44731      -0.60604
                        -----------------------------------------
Magnitude (a.u.)       :      0.79190
Magnitude (Debye)      :      2.01286

                             ****ORCA TERMINATED NORMALLY****
TOTAL RUN TIME: 0 days 0 hours 34 minutes 56 seconds 763 msec
