                         Program Version 3.0.3 - RELEASE   -
|  1> ! PW6B95 def2-TZVP GCP(DFT/TZ) ECP{def2-TZVP} Grid7 MORead
|  2> %pal nprocs 2 end
|  3> %method
|  4>  RunTyp Gradient
|  5>  end
|  6> %maxcore 2000
|  7> %moinp "previous.gbw"
|  8> *xyz 0 1
|  9> Pb 0.228437 0.400960 0.373763
| 10> Cl 2.758375 -0.265398 0.518222
| 11> Cl 0.960989 2.799805 -0.305124
| 12> Cl 0.266331 1.114163 2.879902
| 13> Cs 4.020754 4.734211 3.431955
| 14> *
| 15>
| 16>                          ****END OF INPUT****

CARTESIAN COORDINATES (ANGSTROEM)
---------------------------------
  Pb     0.228437    0.400960    0.373763
  Cl     2.758375   -0.265398    0.518222
  Cl     0.960989    2.799805   -0.305124
  Cl     0.266331    1.114163    2.879902
  Cs     4.020754    4.734211    3.431955

 Total Charge           Charge          ....    0
 Multiplicity           Mult            ....    1
 Number of Electrons    NEL             ....   82
 Basis Dimension        Dim             ....  190

ORBITAL ENERGIES
----------------

  NO   OCC          E(Eh)            E(eV)
   0   2.0000    -101.809969     -2770.3901
   1   2.0000    -101.809555     -2770.3788
   2   2.0000    -101.801103     -2770.1488
   3   2.0000      -9.450302      -257.1558
   4   2.0000      -9.449834      -257.1430
   5   2.0000      -9.441219      -256.9086
   6   2.0000      -7.180102      -195.3805
   7   2.0000      -7.179620      -195.3674
   8   2.0000      -7.177267      -195.3034
   9   2.0000      -7.177102      -195.2989
  10   2.0000      -7.176800      -195.2906
  11   2.0000      -7.176660      -195.2869
  12   2.0000      -7.171114      -195.1359
  13   2.0000      -7.168105      -195.0540
  14   2.0000      -7.168034      -195.0521
  15   2.0000      -5.512531      -150.0036
  16   2.0000      -3.336588       -90.7932
  17   2.0000      -3.336376       -90.7874
  18   2.0000      -3.334444       -90.7348
  19   2.0000      -1.164412       -31.6853
  20   2.0000      -0.832587       -22.6558
  21   2.0000      -0.831541       -22.6274
  22   2.0000      -0.826380       -22.4869
  23   2.0000      -0.826110       -22.4796
  24   2.0000      -0.824485       -22.4354
  25   2.0000      -0.727910       -19.8074
  26   2.0000      -0.709752       -19.3133
  27   2.0000      -0.703031       -19.1304
  28   2.0000      -0.633281       -17.2324
  29   2.0000      -0.633113       -17.2279
  30   2.0000      -0.630640       -17.1606
  31   2.0000      -0.452291       -12.3075
  32   2.0000      -0.277530        -7.5520
  33   2.0000      -0.273287        -7.4365
  34   2.0000      -0.264321        -7.1925
  35   2.0000      -0.246419        -6.7054
  36   2.0000      -0.244945        -6.6653
  37   2.0000      -0.230449        -6.2708
  38   2.0000      -0.225253        -6.1294
  39   2.0000      -0.224070        -6.0973
  40   2.0000      -0.220519        -6.0006
  41   0.0000      -0.090841        -2.4719
  42   0.0000      -0.035122        -0.9557
  43   0.0000      -0.034298        -0.9333
  44   0.0000      -0.034281        -0.9328
  45   0.0000      -0.029253        -0.7960

MULLIKEN ATOMIC CHARGES
-----------------------
   0 Pb:    0.766453
   1 Cl:   -0.553075
   2 Cl:   -0.562416
   3 Cl:   -0.564415
   4 Cs:    0.913454
Sum of atomic charges:   -0.0000000

LOEWDIN ATOMIC CHARGES
----------------------
   0 Pb:   -0.006053
   1 Cl:   -0.273629
   2 Cl:   -0.257625
   3 Cl:   -0.262976
   4 Cs:    0.800282

  Mayer bond orders larger than 0.1
B(  0-Pb,  1-Cl) :   0.7175 B(  0-Pb,  2-Cl) :   0.6803 B(  0-Pb,  3-Cl) :   0.6783

FINAL SINGLE POINT ENERGY     -1595.021938195131

DIPOLE MOMENT
-------------
                                X             Y             Z
Electronic contribution:     48.83734      83.17634      53.61779
Nuclear contribution   :    -45.02060     -77.71347     -49.97709
                        -----------------------------------------
Total Dipole Moment    :      3.81674       5.46287       3.64070
                        -----------------------------------------
Magnitude (a.u.)       :      7.59376
Magnitude (Debye)      :     19.30180

                             ****ORCA TERMINATED NORMALLY****
TOTAL RUN TIME: 0 days 0 hours 12 minutes 2 seconds 531 msec
