                         Program Version 3.0.3 - RELEASE   -
|  1> ! PW6B95 def2-TZVP GCP(DFT/TZ) ECP{def2-TZVP} Grid7 MORead
|  2> %pal nprocs 2 end
|  3> %method
|  4>  RunTyp Gradient
|  5>  end
|  6> %maxcore 2000
|  7> %moinp "previous.gbw"
|  8> *xyz 0 1
|  9> Pb 0.343352 0.374763 0.442622
| 10> Cl 2.941083 0.409401 0.174864
| 11> Cl 0.155494 2.884305 0.026233
| 12> Cl 0.555343 0.672598 3.014276
| 13> Cs 3.765131 4.394116 3.242676
| 14> *
| 15>
| 16>                          ****END OF INPUT****

CARTESIAN COORDINATES (ANGSTROEM)
---------------------------------
  Pb     0.343352    0.374763    0.442622
  Cl     2.941083    0.409401    0.174864
  Cl     0.155494    2.884305    0.026233
  Cl     0.555343    0.672598    3.014276
  Cs     3.765131    4.394116    3.242676

 Total Charge           Charge          ....    0
 Multiplicity           Mult            ....    1
 Number of Electrons    NEL             ....   82
 Basis Dimension        Dim             ....  190

ORBITAL ENERGIES
----------------

  NO   OCC          E(Eh)            E(eV)
   0   2.0000    -101.821216     -2770.6962
   1   2.0000    -101.817739     -2770.6015
   2   2.0000    -101.813826     -2770.4950
   3   2.0000      -9.461821      -257.4692
   4   2.0000      -9.458084      -257.3676
   5   2.0000      -9.454066      -257.2582
   6   2.0000      -7.191529      -195.6915
   7   2.0000      -7.188798      -195.6171
   8   2.0000      -7.188617      -195.6122
   9   2.0000      -7.187782      -195.5895
  10   2.0000      -7.185133      -195.5174
  11   2.0000      -7.184899      -195.5110
  12   2.0000      -7.183804      -195.4812
  13   2.0000      -7.181096      -195.4075
  14   2.0000      -7.180880      -195.4017
  15   2.0000      -5.516576      -150.1137
  16   2.0000      -3.340565       -90.9014
  17   2.0000      -3.340296       -90.8941
  18   2.0000      -3.338841       -90.8545
  19   2.0000      -1.154802       -31.4238
  20   2.0000      -0.838227       -22.8093
  21   2.0000      -0.836799       -22.7705
  22   2.0000      -0.830551       -22.6005
  23   2.0000      -0.830466       -22.5981
  24   2.0000      -0.829201       -22.5637
  25   2.0000      -0.739228       -20.1154
  26   2.0000      -0.719595       -19.5812
  27   2.0000      -0.715234       -19.4625
  28   2.0000      -0.623744       -16.9729
  29   2.0000      -0.623674       -16.9710
  30   2.0000      -0.620888       -16.8952
  31   2.0000      -0.459436       -12.5019
  32   2.0000      -0.288820        -7.8592
  33   2.0000      -0.284863        -7.7515
  34   2.0000      -0.274175        -7.4607
  35   2.0000      -0.256316        -6.9747
  36   2.0000      -0.255839        -6.9617
  37   2.0000      -0.242071        -6.5871
  38   2.0000      -0.238964        -6.5025
  39   2.0000      -0.236662        -6.4399
  40   2.0000      -0.225874        -6.1463
  41   0.0000      -0.084226        -2.2919
  42   0.0000      -0.029491        -0.8025
  43   0.0000      -0.029407        -0.8002
  44   0.0000      -0.029365        -0.7991
  45   0.0000      -0.022082        -0.6009

MULLIKEN ATOMIC CHARGES
-----------------------
   0 Pb:    0.768805
   1 Cl:   -0.558970
   2 Cl:   -0.544994
   3 Cl:   -0.559775
   4 Cs:    0.894934
Sum of atomic charges:   -0.0000000

LOEWDIN ATOMIC CHARGES
----------------------
   0 Pb:   -0.016973
   1 Cl:   -0.259574
   2 Cl:   -0.220047
   3 Cl:   -0.248931
   4 Cs:    0.745526

  Mayer bond orders larger than 0.1
B(  0-Pb,  1-Cl) :   0.6842 B(  0-Pb,  2-Cl) :   0.7093 B(  0-Pb,  3-Cl) :   0.6757

FINAL SINGLE POINT ENERGY     -1595.034649772740

DIPOLE MOMENT
-------------
                                X             Y             Z
Electronic contribution:     51.28040      65.27940      47.29687
Nuclear contribution   :    -47.67876     -60.71715     -44.12885
                        -----------------------------------------
Total Dipole Moment    :      3.60164       4.56225       3.16803
                        -----------------------------------------
Magnitude (a.u.)       :      6.61984
Magnitude (Debye)      :     16.82631

                             ****ORCA TERMINATED NORMALLY****
TOTAL RUN TIME: 0 days 0 hours 12 minutes 25 seconds 524 msec
