                         Program Version 3.0.3 - RELEASE   -
|  1> ! RIJCOSX RI-B2PLYP D3BJ def2-TZVP ECP{def2-TZVP} TIGHTSCF Grid5 FinalGrid6 SlowConv MORead
|  2> %method
|  3>  RunTyp Gradient
|  4>  end
|  5> %maxcore 1000
|  6> %moinp "previous.gbw"
|  7> *xyz 0 1
|  8> C -0.350735 0.477716 -1.303650
|  9> N -0.560900 -0.264215 -2.637980
| 10> H -0.321965 0.316550 -3.492030
| 11> H -1.549820 -0.353103 -2.857670
| 12> H -0.131604 -1.069140 -2.656630
| 13> H -1.071980 1.316670 -1.312580
| 14> H 0.675011 0.861695 -1.265050
| 15> H -0.619776 -0.281935 -0.528256
| 16> Pb -3.093440 -2.560310 -2.295120
| 17> Cl -0.662439 -3.196040 -2.306970
| 18> Cl -3.418460 -0.211765 -1.745800
| 19> Cl -4.723740 -4.093110 -1.375100
| 20> *
| 21>
| 22>                          ****END OF INPUT****

CARTESIAN COORDINATES (ANGSTROEM)
---------------------------------
  C     -0.350735    0.477716   -1.303650
  N     -0.560900   -0.264215   -2.637980
  H     -0.321965    0.316550   -3.492030
  H     -1.549820   -0.353103   -2.857670
  H     -0.131604   -1.069140   -2.656630
  H     -1.071980    1.316670   -1.312580
  H      0.675011    0.861695   -1.265050
  H     -0.619776   -0.281935   -0.528256
  Pb    -3.093440   -2.560310   -2.295120
  Cl    -0.662439   -3.196040   -2.306970
  Cl    -3.418460   -0.211765   -1.745800
  Cl    -4.723740   -4.093110   -1.375100

 Total Charge           Charge          ....    0
 Multiplicity           Mult            ....    1
 Number of Electrons    NEL             ....   92
 Basis Dimension        Dim             ....  259

ORBITAL ENERGIES
----------------

  NO   OCC          E(Eh)            E(eV)
   0   2.0000    -102.860013     -2798.9632
   1   2.0000    -102.845265     -2798.5619
   2   2.0000    -102.829219     -2798.1253
   3   2.0000     -14.991829      -407.9484
   4   2.0000     -10.732387      -292.0431
   5   2.0000      -9.869689      -268.5679
   6   2.0000      -9.854103      -268.1438
   7   2.0000      -9.837188      -267.6835
   8   2.0000      -7.506260      -204.2557
   9   2.0000      -7.504973      -204.2207
  10   2.0000      -7.504733      -204.2142
  11   2.0000      -7.490755      -203.8338
  12   2.0000      -7.489417      -203.7974
  13   2.0000      -7.489302      -203.7943
  14   2.0000      -7.474299      -203.3860
  15   2.0000      -7.472293      -203.3314
  16   2.0000      -7.472135      -203.3271
  17   2.0000      -5.777675      -157.2185
  18   2.0000      -3.550213       -96.6062
  19   2.0000      -3.548242       -96.5526
  20   2.0000      -3.547175       -96.5235
  21   2.0000      -1.182693       -32.1827
  22   2.0000      -0.961087       -26.1525
  23   2.0000      -0.953575       -25.9481
  24   2.0000      -0.949320       -25.8323
  25   2.0000      -0.940041       -25.5798
  26   2.0000      -0.938509       -25.5381
  27   2.0000      -0.886242       -24.1159
  28   2.0000      -0.878745       -23.9119
  29   2.0000      -0.863853       -23.5066
  30   2.0000      -0.843974       -22.9657
  31   2.0000      -0.743120       -20.2213
  32   2.0000      -0.684489       -18.6259
  33   2.0000      -0.603609       -16.4250
  34   2.0000      -0.553363       -15.0578
  35   2.0000      -0.540132       -14.6978
  36   2.0000      -0.535521       -14.5723
  37   2.0000      -0.397345       -10.8123
  38   2.0000      -0.389365       -10.5952
  39   2.0000      -0.371908       -10.1201
  40   2.0000      -0.362133        -9.8541
  41   2.0000      -0.351871        -9.5749
  42   2.0000      -0.350408        -9.5351
  43   2.0000      -0.328559        -8.9405
  44   2.0000      -0.324935        -8.8419
  45   2.0000      -0.242335        -6.5943
  46   0.0000      -0.015805        -0.4301
  47   0.0000       0.000723         0.0197
  48   0.0000       0.051541         1.4025
  49   0.0000       0.058513         1.5922
  50   0.0000       0.069300         1.8858

Dispersion correction            ...

MULLIKEN ATOMIC CHARGES
-----------------------
   0 C :   -0.259507
   1 N :   -0.222325
   2 H :    0.275277
   3 H :    0.259480
   4 H :    0.233779
   5 H :    0.176147
   6 H :    0.161012
   7 H :    0.186962
   8 Pb:    0.725591
   9 Cl:   -0.547089
  10 Cl:   -0.514230
  11 Cl:   -0.475096
Sum of atomic charges:   -0.0000000

LOEWDIN ATOMIC CHARGES
----------------------
   0 C :   -0.267747
   1 N :    0.135907
   2 H :    0.214268
   3 H :    0.155223
   4 H :    0.091864
   5 H :    0.129646
   6 H :    0.122729
   7 H :    0.143832
   8 Pb:   -0.236190
   9 Cl:   -0.219746
  10 Cl:   -0.140613
  11 Cl:   -0.129173

  Mayer bond orders larger than 0.1
B(  0-C ,  1-N ) :   0.8617 B(  0-C ,  5-H ) :   0.9390 B(  0-C ,  6-H ) :   0.9391
B(  0-C ,  7-H ) :   0.9379 B(  1-N ,  2-H ) :   0.8760 B(  1-N ,  3-H ) :   0.8228
B(  1-N ,  4-H ) :   0.8619 B(  3-H , 10-Cl) :   0.1520 B(  4-H ,  9-Cl) :   0.1509
B(  8-Pb,  9-Cl) :   0.5695 B(  8-Pb, 10-Cl) :   0.5811 B(  8-Pb, 11-Cl) :   0.8241

MP2 TOTAL ENERGY:    -1669.543718420 Eh
Dispersion correction           -0.013498199
FINAL SINGLE POINT ENERGY     -1669.557216619403

DIPOLE MOMENT
-------------
                                X             Y             Z
Electronic contribution:    -55.65057     -51.90898     -27.30217
Nuclear contribution   :     58.47018      55.19330      26.25531
                        -----------------------------------------
Total Dipole Moment    :      2.81961       3.28431      -1.04686
                        -----------------------------------------
Magnitude (a.u.)       :      4.45341
Magnitude (Debye)      :     11.31966

                             ****ORCA TERMINATED NORMALLY****
TOTAL RUN TIME: 0 days 0 hours 16 minutes 1 seconds 134 msec
