                         Program Version 3.0.3 - RELEASE   -
|  1> ! RIJCOSX RI-B2PLYP D3BJ def2-TZVP ECP{def2-TZVP} TIGHTSCF Grid5 FinalGrid6 MORead
|  2> %maxcore 4000
|  3> %moinp "previous.gbw"
|  4> *xyz -1 1
|  5> C 3.321334 3.304660 2.430157
|  6> N 2.356571 2.328752 1.891132
|  7> H 3.929482 2.825089 3.202898
|  8> H 2.779051 4.148026 2.867131
|  9> H 3.970752 3.667461 1.628343
| 10> H 1.712427 1.919960 2.626954
| 11> H 2.798301 1.476145 1.466883
| 12> H 1.726191 2.717573 1.143366
| 13> Pb 0.008612 -0.178950 0.655288
| 14> Cl 2.819241 -0.579595 0.728417
| 15> Cl 0.227007 2.918192 -0.312156
| 16> Cl 0.390479 0.706110 3.578622
| 17> Cl -3.269175 -0.345526 0.015929
| 18> Cl -0.041161 -1.145945 -2.209720
| 19> Cl -0.499440 -2.787539 1.941320
| 20> N -2.185808 -3.054212 -0.959335
| 21> C -3.018599 -3.892984 -1.852407
| 22> H -2.697680 -2.199715 -0.614166
| 23> H -1.345672 -2.675212 -1.453465
| 24> H -3.863008 -4.284793 -1.282203
| 25> H -2.403708 -4.719219 -2.215644
| 26> H -3.366846 -3.277457 -2.686457
| 27> H -1.855008 -3.591944 -0.148281
| 28> Cl 3.248679 -4.739445 1.418364
| 29> Cl 1.057136 -5.297377 4.920051
| 30> Pb 0.368326 -5.507619 1.561366
| 31> N 2.161285 -2.658962 3.515767
| 32> C 3.006676 -1.740565 4.311813
| 33> H 2.698023 -3.156655 2.770259
| 34> H 1.390718 -2.163400 3.045648
| 35> H 3.799912 -2.319606 4.793333
| 36> H 2.384520 -1.246095 5.060700
| 37> H 3.427402 -0.991699 3.638613
| 38> H 1.731703 -3.427574 4.095222
| 39> Cl 0.368971 -5.534840 -1.226200
| 40> H -2.444419 -8.567556 -2.232135
| 41> H -0.598109 -7.323819 -1.165277
| 42> H -1.004862 -9.612620 -2.073837
| 43> C -1.775778 -9.065444 -1.523604
| 44> N -1.147567 -8.055720 -0.651573
| 45> Cl -2.566874 -5.885464 1.149947
| 46> H -1.842497 -7.478800 -0.094428
| 47> H -0.483324 -8.457680 0.056334
| 48> H -2.352281 -9.766255 -0.913124
| 49> Cl 0.869021 -8.649789 1.692607
| 50> H -3.020852 1.137851 -3.759427
| 51> H -2.443836 0.935457 -1.388789
| 52> C -2.421148 1.915242 -3.276964
| 53> H -3.072919 2.741318 -2.978333
| 54> N -1.760461 1.345922 -2.088558
| 55> H -1.130632 0.530708 -2.323343
| 56> H -1.666594 2.281032 -3.979276
| 57> H -1.165922 2.035435 -1.571092
| 58> H 3.622704 -8.508951 4.939340
| 59> H 2.344608 -7.817453 2.937850
| 60> C 4.032137 -7.791101 4.222778
| 61> H 4.696529 -8.309487 3.525223
| 62> N 2.932785 -7.146076 3.481813
| 63> H 2.277052 -6.592786 4.110347
| 64> H 4.597499 -7.025510 4.762093
| 65> H 3.269849 -6.425562 2.787786
| 66> *
| 67>
| 68>                          ****END OF INPUT****

CARTESIAN COORDINATES (ANGSTROEM)
---------------------------------
  C      3.321334    3.304660    2.430157
  N      2.356571    2.328752    1.891132
  H      3.929482    2.825089    3.202898
  H      2.779051    4.148026    2.867131
  H      3.970752    3.667461    1.628343
  H      1.712427    1.919960    2.626954
  H      2.798301    1.476145    1.466883
  H      1.726191    2.717573    1.143366
  Pb     0.008612   -0.178950    0.655288
  Cl     2.819241   -0.579595    0.728417
  Cl     0.227007    2.918192   -0.312156
  Cl     0.390479    0.706110    3.578622
  Cl    -3.269175   -0.345526    0.015929
  Cl    -0.041161   -1.145945   -2.209720
  Cl    -0.499440   -2.787539    1.941320
  N     -2.185808   -3.054212   -0.959335
  C     -3.018599   -3.892984   -1.852407
  H     -2.697680   -2.199715   -0.614166
  H     -1.345672   -2.675212   -1.453465
  H     -3.863008   -4.284793   -1.282203
  H     -2.403708   -4.719219   -2.215644
  H     -3.366846   -3.277457   -2.686457
  H     -1.855008   -3.591944   -0.148281
  Cl     3.248679   -4.739445    1.418364
  Cl     1.057136   -5.297377    4.920051
  Pb     0.368326   -5.507619    1.561366
  N      2.161285   -2.658962    3.515767
  C      3.006676   -1.740565    4.311813
  H      2.698023   -3.156655    2.770259
  H      1.390718   -2.163400    3.045648
  H      3.799912   -2.319606    4.793333
  H      2.384520   -1.246095    5.060700
  H      3.427402   -0.991699    3.638613
  H      1.731703   -3.427574    4.095222
  Cl     0.368971   -5.534840   -1.226200
  H     -2.444419   -8.567556   -2.232135
  H     -0.598109   -7.323819   -1.165277
  H     -1.004862   -9.612620   -2.073837
  C     -1.775778   -9.065444   -1.523604
  N     -1.147567   -8.055720   -0.651573
  Cl    -2.566874   -5.885464    1.149947
  H     -1.842497   -7.478800   -0.094428
  H     -0.483324   -8.457680    0.056334
  H     -2.352281   -9.766255   -0.913124
  Cl     0.869021   -8.649789    1.692607
  H     -3.020852    1.137851   -3.759427
  H     -2.443836    0.935457   -1.388789
  C     -2.421148    1.915242   -3.276964
  H     -3.072919    2.741318   -2.978333
  N     -1.760461    1.345922   -2.088558
  H     -1.130632    0.530708   -2.323343
  H     -1.666594    2.281032   -3.979276
  H     -1.165922    2.035435   -1.571092
  H      3.622704   -8.508951    4.939340
  H      2.344608   -7.817453    2.937850
  C      4.032137   -7.791101    4.222778
  H      4.696529   -8.309487    3.525223
  N      2.932785   -7.146076    3.481813
  H      2.277052   -6.592786    4.110347
  H      4.597499   -7.025510    4.762093
  H      3.269849   -6.425562    2.787786

 Total Charge           Charge          ....   -1
 Multiplicity           Mult            ....    1
 Number of Electrons    NEL             ....  346
 Basis Dimension        Dim             .... 1095

ORBITAL ENERGIES
----------------

  NO   OCC          E(Eh)            E(eV)
   0   2.0000    -102.752613     -2796.0407
   1   2.0000    -102.739728     -2795.6901
   2   2.0000    -102.736370     -2795.5987
   3   2.0000    -102.736143     -2795.5926
   4   2.0000    -102.735128     -2795.5649
   5   2.0000    -102.732977     -2795.5064
   6   2.0000    -102.727864     -2795.3673
   7   2.0000    -102.723422     -2795.2464
   8   2.0000    -102.722493     -2795.2212
   9   2.0000    -102.721099     -2795.1832
  10   2.0000    -102.718531     -2795.1133
  11   2.0000     -14.845777      -403.9741
  12   2.0000     -14.843245      -403.9052
  13   2.0000     -14.835402      -403.6918
  14   2.0000     -14.834361      -403.6635
  15   2.0000     -14.830453      -403.5571
  16   2.0000     -14.828233      -403.4967
  17   2.0000     -10.615453      -288.8612
  18   2.0000     -10.612953      -288.7931
  19   2.0000     -10.607442      -288.6432
  20   2.0000     -10.605669      -288.5949
  21   2.0000     -10.583810      -288.0001
  22   2.0000     -10.578616      -287.8588
  23   2.0000      -9.759952      -265.5818
  24   2.0000      -9.746840      -265.2250
  25   2.0000      -9.743704      -265.1397
  26   2.0000      -9.743289      -265.1284
  27   2.0000      -9.741507      -265.0799
  28   2.0000      -9.740073      -265.0409
  29   2.0000      -9.734780      -264.8968
  30   2.0000      -9.730545      -264.7816
  31   2.0000      -9.728991      -264.7393
  32   2.0000      -9.727580      -264.7009
  33   2.0000      -9.725671      -264.6490
  34   2.0000      -7.396703      -201.2745
  35   2.0000      -7.395504      -201.2419
  36   2.0000      -7.395393      -201.2389
  37   2.0000      -7.383605      -200.9181
  38   2.0000      -7.382614      -200.8911
  39   2.0000      -7.382118      -200.8776
  40   2.0000      -7.379972      -200.8193
  41   2.0000      -7.379772      -200.8138
  42   2.0000      -7.379664      -200.8109
  43   2.0000      -7.379479      -200.8058
  44   2.0000      -7.379246      -200.7995
  45   2.0000      -7.378788      -200.7870
  46   2.0000      -7.378341      -200.7749
  47   2.0000      -7.377274      -200.7458
  48   2.0000      -7.376866      -200.7347
  49   2.0000      -7.376438      -200.7231
  50   2.0000      -7.376259      -200.7182
  51   2.0000      -7.375593      -200.7001
  52   2.0000      -7.371127      -200.5786
  53   2.0000      -7.370731      -200.5678
  54   2.0000      -7.370435      -200.5597
  55   2.0000      -7.366789      -200.4605
  56   2.0000      -7.366523      -200.4533
  57   2.0000      -7.366337      -200.4482
  58   2.0000      -7.365456      -200.4242
  59   2.0000      -7.365015      -200.4122
  60   2.0000      -7.364578      -200.4004
  61   2.0000      -7.364012      -200.3850
  62   2.0000      -7.363692      -200.3762
  63   2.0000      -7.363106      -200.3603
  64   2.0000      -7.361983      -200.3297
  65   2.0000      -7.361585      -200.3189
  66   2.0000      -7.361462      -200.3156
  67   2.0000      -5.714240      -155.4924
  68   2.0000      -5.703223      -155.1926
  69   2.0000      -3.485337       -94.8408
  70   2.0000      -3.484187       -94.8095
  71   2.0000      -3.483611       -94.7939
  72   2.0000      -3.474219       -94.5383
  73   2.0000      -3.473225       -94.5112
  74   2.0000      -3.472834       -94.5006
  75   2.0000      -1.026914       -27.9437
  76   2.0000      -1.024670       -27.8827
  77   2.0000      -1.019130       -27.7319
  78   2.0000      -1.017194       -27.6792
  79   2.0000      -1.009602       -27.4727
  80   2.0000      -1.006881       -27.3986
  81   2.0000      -0.875028       -23.8107
  82   2.0000      -0.873269       -23.7629
  83   2.0000      -0.872835       -23.7510
  84   2.0000      -0.871594       -23.7173
  85   2.0000      -0.870544       -23.6887
  86   2.0000      -0.865265       -23.5451
  87   2.0000      -0.863475       -23.4963
  88   2.0000      -0.861988       -23.4559
  89   2.0000      -0.861094       -23.4316
  90   2.0000      -0.860162       -23.4062
  91   2.0000      -0.774830       -21.0842
  92   2.0000      -0.770163       -20.9572
  93   2.0000      -0.767953       -20.8971
  94   2.0000      -0.763868       -20.7859
  95   2.0000      -0.759678       -20.6719
  96   2.0000      -0.756597       -20.5881
  97   2.0000      -0.754509       -20.5312
  98   2.0000      -0.749503       -20.3950
  99   2.0000      -0.748437       -20.3660
 100   2.0000      -0.746984       -20.3265
 101   2.0000      -0.745091       -20.2750
 102   2.0000      -0.741982       -20.1903
 103   2.0000      -0.737670       -20.0730
 104   2.0000      -0.737397       -20.0656
 105   2.0000      -0.735658       -20.0183
 106   2.0000      -0.727857       -19.8060
 107   2.0000      -0.724257       -19.7080
 108   2.0000      -0.559862       -15.2346
 109   2.0000      -0.558705       -15.2031
 110   2.0000      -0.552397       -15.0315
 111   2.0000      -0.551682       -15.0120
 112   2.0000      -0.550585       -14.9822
 113   2.0000      -0.550018       -14.9667
 114   2.0000      -0.547502       -14.8983
 115   2.0000      -0.546868       -14.8810
 116   2.0000      -0.543782       -14.7971
 117   2.0000      -0.542170       -14.7532
 118   2.0000      -0.534544       -14.5457
 119   2.0000      -0.531751       -14.4697
 120   2.0000      -0.497986       -13.5509
 121   2.0000      -0.495828       -13.4922
 122   2.0000      -0.489203       -13.3119
 123   2.0000      -0.487337       -13.2611
 124   2.0000      -0.466929       -12.7058
 125   2.0000      -0.464627       -12.6431
 126   2.0000      -0.450710       -12.2644
 127   2.0000      -0.437472       -11.9042
 128   2.0000      -0.423380       -11.5207
 129   2.0000      -0.421305       -11.4643
 130   2.0000      -0.420850       -11.4519
 131   2.0000      -0.418303       -11.3826
 132   2.0000      -0.415291       -11.3007
 133   2.0000      -0.413860       -11.2617
 134   2.0000      -0.413644       -11.2558
 135   2.0000      -0.411426       -11.1955
 136   2.0000      -0.399061       -10.8590
 137   2.0000      -0.394728       -10.7411
 138   2.0000      -0.393182       -10.6990
 139   2.0000      -0.387946       -10.5565
 140   2.0000      -0.283089        -7.7033
 141   2.0000      -0.270672        -7.3654
 142   2.0000      -0.265255        -7.2179
 143   2.0000      -0.262600        -7.1457
 144   2.0000      -0.256290        -6.9740
 145   2.0000      -0.254973        -6.9382
 146   2.0000      -0.253066        -6.8863
 147   2.0000      -0.247759        -6.7419
 148   2.0000      -0.245140        -6.6706
 149   2.0000      -0.242793        -6.6067
 150   2.0000      -0.241591        -6.5740
 151   2.0000      -0.239553        -6.5186
 152   2.0000      -0.238946        -6.5021
 153   2.0000      -0.237337        -6.4583
 154   2.0000      -0.234403        -6.3784
 155   2.0000      -0.233483        -6.3534
 156   2.0000      -0.231396        -6.2966
 157   2.0000      -0.230132        -6.2622
 158   2.0000      -0.228967        -6.2305
 159   2.0000      -0.228127        -6.2077
 160   2.0000      -0.227431        -6.1887
 161   2.0000      -0.226000        -6.1498
 162   2.0000      -0.225245        -6.1292
 163   2.0000      -0.223808        -6.0901
 164   2.0000      -0.223017        -6.0686
 165   2.0000      -0.222207        -6.0466
 166   2.0000      -0.221994        -6.0408
 167   2.0000      -0.220367        -5.9965
 168   2.0000      -0.218801        -5.9539
 169   2.0000      -0.215563        -5.8658
 170   2.0000      -0.214843        -5.8462
 171   2.0000      -0.195258        -5.3132
 172   2.0000      -0.185338        -5.0433
 173   0.0000       0.092643         2.5210
 174   0.0000       0.107605         2.9281
 175   0.0000       0.113967         3.1012
 176   0.0000       0.117611         3.2004
 177   0.0000       0.125115         3.4046

MULLIKEN ATOMIC CHARGES
-----------------------
   0 C :   -0.249819
   1 N :   -0.287863
   2 H :    0.138152
   3 H :    0.142524
   4 H :    0.139550
   5 H :    0.270964
   6 H :    0.263006
   7 H :    0.280160
   8 Pb:    1.003442
   9 Cl:   -0.614042
  10 Cl:   -0.712079
  11 Cl:   -0.674966
  12 Cl:   -0.692846
  13 Cl:   -0.653894
  14 Cl:   -0.601316
  15 N :   -0.276859
  16 C :   -0.243668
  17 H :    0.277509
  18 H :    0.297222
  19 H :    0.151113
  20 H :    0.136465
  21 H :    0.120521
  22 H :    0.295823
  23 Cl:   -0.650094
  24 Cl:   -0.699681
  25 Pb:    0.988841
  26 N :   -0.278862
  27 C :   -0.236474
  28 H :    0.292341
  29 H :    0.302058
  30 H :    0.117917
  31 H :    0.152895
  32 H :    0.137045
  33 H :    0.275505
  34 Cl:   -0.610829
  35 H :    0.136406
  36 H :    0.271122
  37 H :    0.140808
  38 C :   -0.250103
  39 N :   -0.285130
  40 Cl:   -0.669452
  41 H :    0.268599
  42 H :    0.278480
  43 H :    0.142986
  44 Cl:   -0.711399
  45 H :    0.135663
  46 H :    0.270053
  47 C :   -0.246099
  48 H :    0.137714
  49 N :   -0.289959
  50 H :    0.266521
  51 H :    0.138764
  52 H :    0.277752
  53 H :    0.139341
  54 H :    0.277285
  55 C :   -0.245108
  56 H :    0.137243
  57 N :   -0.291898
  58 H :    0.276530
  59 H :    0.136646
  60 H :    0.257473
Sum of atomic charges:   -1.0000000

LOEWDIN ATOMIC CHARGES
----------------------
   0 C :   -0.296263
   1 N :    0.065959
   2 H :    0.118556
   3 H :    0.119910
   4 H :    0.117819
   5 H :    0.144260
   6 H :    0.157669
   7 H :    0.150881
   8 Pb:    0.154538
   9 Cl:   -0.371241
  10 Cl:   -0.514669
  11 Cl:   -0.476384
  12 Cl:   -0.509028
  13 Cl:   -0.405188
  14 Cl:   -0.181318
  15 N :    0.091805
  16 C :   -0.301934
  17 H :    0.143235
  18 H :    0.157631
  19 H :    0.118108
  20 H :    0.112499
  21 H :    0.111796
  22 H :    0.176627
  23 Cl:   -0.420168
  24 Cl:   -0.526850
  25 Pb:    0.070078
  26 N :    0.090312
  27 C :   -0.301768
  28 H :    0.156323
  29 H :    0.169467
  30 H :    0.110729
  31 H :    0.118559
  32 H :    0.112257
  33 H :    0.155458
  34 Cl:   -0.330574
  35 H :    0.117713
  36 H :    0.143570
  37 H :    0.118398
  38 C :   -0.296802
  39 N :    0.066814
  40 Cl:   -0.458968
  41 H :    0.159571
  42 H :    0.154415
  43 H :    0.119574
  44 Cl:   -0.509718
  45 H :    0.118357
  46 H :    0.147696
  47 C :   -0.298998
  48 H :    0.117574
  49 N :    0.059231
  50 H :    0.138349
  51 H :    0.118308
  52 H :    0.143380
  53 H :    0.118746
  54 H :    0.146636
  55 C :   -0.298538
  56 H :    0.117071
  57 N :    0.061476
  58 H :    0.131617
  59 H :    0.118656
  60 H :    0.156779

  Mayer bond orders larger than 0.1
B(  0-C ,  1-N ) :   0.9341 B(  0-C ,  2-H ) :   0.9746 B(  0-C ,  3-H ) :   0.9745
B(  0-C ,  4-H ) :   0.9742 B(  1-N ,  5-H ) :   0.7723 B(  1-N ,  6-H ) :   0.8162
B(  1-N ,  7-H ) :   0.8096 B(  5-H , 11-Cl) :   0.2506 B(  6-H ,  9-Cl) :   0.1913
B(  7-H , 10-Cl) :   0.1744 B(  8-Pb,  9-Cl) :   0.4748 B(  8-Pb, 10-Cl) :   0.1925
B(  8-Pb, 11-Cl) :   0.3067 B(  8-Pb, 12-Cl) :   0.1679 B(  8-Pb, 13-Cl) :   0.2891
B(  8-Pb, 14-Cl) :   0.2833 B( 10-Cl, 52-H ) :   0.1761 B( 12-Cl, 17-H ) :   0.2084
B( 12-Cl, 46-H ) :   0.2214 B( 13-Cl, 18-H ) :   0.1234 B( 13-Cl, 50-H ) :   0.2358
B( 14-Cl, 25-Pb) :   0.2970 B( 15-N , 16-C ) :   0.9307 B( 15-N , 17-H ) :   0.7935
B( 15-N , 18-H ) :   0.8288 B( 15-N , 22-H ) :   0.8645 B( 16-C , 19-H ) :   0.9692
B( 16-C , 20-H ) :   0.9678 B( 16-C , 21-H ) :   0.9707 B( 23-Cl, 25-Pb) :   0.3123
B( 23-Cl, 28-H ) :   0.1425 B( 23-Cl, 60-H ) :   0.2055 B( 24-Cl, 25-Pb) :   0.1371
B( 24-Cl, 33-H ) :   0.1809 B( 24-Cl, 58-H ) :   0.2674 B( 25-Pb, 34-Cl) :   0.4581
B( 25-Pb, 40-Cl) :   0.3234 B( 25-Pb, 44-Cl) :   0.2003 B( 26-N , 27-C ) :   0.9262
B( 26-N , 28-H ) :   0.8233 B( 26-N , 29-H ) :   0.8580 B( 26-N , 33-H ) :   0.8153
B( 27-C , 30-H ) :   0.9706 B( 27-C , 31-H ) :   0.9687 B( 27-C , 32-H ) :   0.9667
B( 34-Cl, 36-H ) :   0.2072 B( 35-H , 38-C ) :   0.9748 B( 36-H , 39-N ) :   0.7960
B( 37-H , 38-C ) :   0.9739 B( 38-C , 39-N ) :   0.9326 B( 38-C , 43-H ) :   0.9743
B( 39-N , 41-H ) :   0.7966 B( 39-N , 42-H ) :   0.8133 B( 40-Cl, 41-H ) :   0.2180
B( 42-H , 44-Cl) :   0.1742 B( 44-Cl, 54-H ) :   0.1703 B( 45-H , 47-C ) :   0.9749
B( 46-H , 49-N ) :   0.7894 B( 47-C , 48-H ) :   0.9757 B( 47-C , 49-N ) :   0.9383
B( 47-C , 51-H ) :   0.9748 B( 49-N , 50-H ) :   0.7826 B( 49-N , 52-H ) :   0.8104
B( 53-H , 55-C ) :   0.9756 B( 54-H , 57-N ) :   0.8156 B( 55-C , 56-H ) :   0.9747
B( 55-C , 57-N ) :   0.9358 B( 55-C , 59-H ) :   0.9748 B( 57-N , 58-H ) :   0.7539
B( 57-N , 60-H ) :   0.8117

MP2 TOTAL ENERGY:    -6025.862917603 Eh
Dispersion correction           -0.080054267
FINAL SINGLE POINT ENERGY     -6025.942971869772

DIPOLE MOMENT
-------------
                                X             Y             Z
Electronic contribution:    -27.28669       3.27956      30.55348
Nuclear contribution   :     28.57056      -3.48320     -32.43065
                        -----------------------------------------
Total Dipole Moment    :      1.28386      -0.20364      -1.87717
                        -----------------------------------------
Magnitude (a.u.)       :      2.28332
Magnitude (Debye)      :      5.80374

                             ****ORCA TERMINATED NORMALLY****
TOTAL RUN TIME: 0 days 1 hours 8 minutes 46 seconds 318 msec
