                         Program Version 3.0.3 - RELEASE   -
|  1> ! PW6B95 def2-TZVP GCP(DFT/TZ) ECP{def2-TZVP} Grid7 MORead
|  2> %pal nprocs 2 end
|  3> %method
|  4>  RunTyp Gradient
|  5>  end
|  6> %maxcore 2000
|  7> %moinp "previous.gbw"
|  8> *xyz 0 1
|  9> Pb 0.542014 0.392129 0.180487
| 10> Cl 3.042684 1.097817 0.729105
| 11> Cl -0.325237 2.857235 0.611360
| 12> Cl 0.052514 -0.204566 2.724695
| 13> Cs 3.463088 4.053845 2.997505
| 14> *
| 15>
| 16>                          ****END OF INPUT****

CARTESIAN COORDINATES (ANGSTROEM)
---------------------------------
  Pb     0.542014    0.392129    0.180487
  Cl     3.042684    1.097817    0.729105
  Cl    -0.325237    2.857235    0.611360
  Cl     0.052514   -0.204566    2.724695
  Cs     3.463088    4.053845    2.997505

 Total Charge           Charge          ....    0
 Multiplicity           Mult            ....    1
 Number of Electrons    NEL             ....   82
 Basis Dimension        Dim             ....  190

ORBITAL ENERGIES
----------------

  NO   OCC          E(Eh)            E(eV)
   0   2.0000    -101.843639     -2771.3063
   1   2.0000    -101.827876     -2770.8774
   2   2.0000    -101.818025     -2770.6093
   3   2.0000      -9.483908      -258.0703
   4   2.0000      -9.467783      -257.6315
   5   2.0000      -9.457738      -257.3581
   6   2.0000      -7.213465      -196.2883
   7   2.0000      -7.211100      -196.2240
   8   2.0000      -7.210789      -196.2155
   9   2.0000      -7.197584      -195.8562
  10   2.0000      -7.194870      -195.7824
  11   2.0000      -7.194544      -195.7735
  12   2.0000      -7.187723      -195.5879
  13   2.0000      -7.184654      -195.5044
  14   2.0000      -7.184499      -195.5001
  15   2.0000      -5.539480      -150.7369
  16   2.0000      -3.363736       -91.5319
  17   2.0000      -3.362937       -91.5102
  18   2.0000      -3.361445       -91.4696
  19   2.0000      -1.132605       -30.8198
  20   2.0000      -0.858407       -23.3584
  21   2.0000      -0.856206       -23.2985
  22   2.0000      -0.853219       -23.2173
  23   2.0000      -0.852395       -23.1948
  24   2.0000      -0.851148       -23.1609
  25   2.0000      -0.753118       -20.4934
  26   2.0000      -0.732700       -19.9378
  27   2.0000      -0.719603       -19.5814
  28   2.0000      -0.602752       -16.4017
  29   2.0000      -0.602023       -16.3819
  30   2.0000      -0.598040       -16.2735
  31   2.0000      -0.475469       -12.9382
  32   2.0000      -0.303885        -8.2691
  33   2.0000      -0.292161        -7.9501
  34   2.0000      -0.287718        -7.8292
  35   2.0000      -0.271699        -7.3933
  36   2.0000      -0.265930        -7.2363
  37   2.0000      -0.255347        -6.9484
  38   2.0000      -0.245715        -6.6862
  39   2.0000      -0.242018        -6.5856
  40   2.0000      -0.239940        -6.5291
  41   0.0000      -0.070863        -1.9283
  42   0.0000      -0.020941        -0.5698
  43   0.0000      -0.020778        -0.5654
  44   0.0000      -0.019244        -0.5237
  45   0.0000      -0.011417        -0.3107

MULLIKEN ATOMIC CHARGES
-----------------------
   0 Pb:    0.793262
   1 Cl:   -0.575362
   2 Cl:   -0.545660
   3 Cl:   -0.531676
   4 Cs:    0.859435
Sum of atomic charges:   -0.0000000

LOEWDIN ATOMIC CHARGES
----------------------
   0 Pb:    0.116485
   1 Cl:   -0.224527
   2 Cl:   -0.253391
   3 Cl:   -0.267603
   4 Cs:    0.629036

  Mayer bond orders larger than 0.1
B(  0-Pb,  1-Cl) :   0.5753 B(  0-Pb,  2-Cl) :   0.6932 B(  0-Pb,  3-Cl) :   0.7498
B(  1-Cl,  4-Cs) :   0.1568

FINAL SINGLE POINT ENERGY     -1595.049396348006

DIPOLE MOMENT
-------------
                                X             Y             Z
Electronic contribution:     66.06840      59.32484      13.79626
Nuclear contribution   :    -62.39128     -55.61266     -12.19284
                        -----------------------------------------
Total Dipole Moment    :      3.67711       3.71218       1.60342
                        -----------------------------------------
Magnitude (a.u.)       :      5.46557
Magnitude (Debye)      :     13.89236

                             ****ORCA TERMINATED NORMALLY****
TOTAL RUN TIME: 0 days 0 hours 12 minutes 9 seconds 967 msec
