                         Program Version 3.0.3 - RELEASE   -
|  1> ! PW6B95 def2-TZVP GCP(DFT/TZ) ECP{def2-TZVP} Grid7 MORead
|  2> %pal nprocs 2 end
|  3> %method
|  4>  RunTyp Gradient
|  5>  end
|  6> %maxcore 2000
|  7> %moinp "previous.gbw"
|  8> *xyz 0 1
|  9> Pb 0.450075 0.238994 0.612511
| 10> Cl 2.886320 0.695906 0.053134
| 11> Cl -0.280979 2.554627 -0.426462
| 12> Cl 0.634200 1.207544 2.988453
| 13> Cs 3.153543 3.754323 2.801752
| 14> *
| 15>
| 16>                          ****END OF INPUT****

CARTESIAN COORDINATES (ANGSTROEM)
---------------------------------
  Pb     0.450075    0.238994    0.612511
  Cl     2.886320    0.695906    0.053134
  Cl    -0.280979    2.554627   -0.426462
  Cl     0.634200    1.207544    2.988453
  Cs     3.153543    3.754323    2.801752

 Total Charge           Charge          ....    0
 Multiplicity           Mult            ....    1
 Number of Electrons    NEL             ....   82
 Basis Dimension        Dim             ....  190

ORBITAL ENERGIES
----------------

  NO   OCC          E(Eh)            E(eV)
   0   2.0000    -101.853832     -2771.5837
   1   2.0000    -101.845575     -2771.3590
   2   2.0000    -101.824553     -2770.7870
   3   2.0000      -9.494663      -258.3629
   4   2.0000      -9.486253      -258.1341
   5   2.0000      -9.464462      -257.5411
   6   2.0000      -7.224112      -196.5781
   7   2.0000      -7.221862      -196.5168
   8   2.0000      -7.221485      -196.5066
   9   2.0000      -7.215878      -196.3540
  10   2.0000      -7.213370      -196.2858
  11   2.0000      -7.212971      -196.2749
  12   2.0000      -7.194310      -195.7671
  13   2.0000      -7.191473      -195.6899
  14   2.0000      -7.191233      -195.6834
  15   2.0000      -5.537520      -150.6836
  16   2.0000      -3.361682       -91.4760
  17   2.0000      -3.361145       -91.4614
  18   2.0000      -3.359764       -91.4238
  19   2.0000      -1.120362       -30.4866
  20   2.0000      -0.860853       -23.4250
  21   2.0000      -0.857278       -23.3277
  22   2.0000      -0.851980       -23.1836
  23   2.0000      -0.851271       -23.1643
  24   2.0000      -0.850209       -23.1354
  25   2.0000      -0.768752       -20.9188
  26   2.0000      -0.749457       -20.3938
  27   2.0000      -0.727432       -19.7944
  28   2.0000      -0.590829       -16.0773
  29   2.0000      -0.589834       -16.0502
  30   2.0000      -0.586233       -15.9522
  31   2.0000      -0.481721       -13.1083
  32   2.0000      -0.319034        -8.6814
  33   2.0000      -0.306628        -8.3438
  34   2.0000      -0.302800        -8.2396
  35   2.0000      -0.283871        -7.7245
  36   2.0000      -0.281461        -7.6589
  37   2.0000      -0.273049        -7.4300
  38   2.0000      -0.254220        -6.9177
  39   2.0000      -0.250441        -6.8149
  40   2.0000      -0.244878        -6.6635
  41   0.0000      -0.063051        -1.7157
  42   0.0000      -0.016063        -0.4371
  43   0.0000      -0.016036        -0.4364
  44   0.0000      -0.012989        -0.3535
  45   0.0000      -0.005147        -0.1401

MULLIKEN ATOMIC CHARGES
-----------------------
   0 Pb:    0.777682
   1 Cl:   -0.524570
   2 Cl:   -0.533921
   3 Cl:   -0.553149
   4 Cs:    0.833959
Sum of atomic charges:   -0.0000000

LOEWDIN ATOMIC CHARGES
----------------------
   0 Pb:    0.039804
   1 Cl:   -0.170041
   2 Cl:   -0.251881
   3 Cl:   -0.163678
   4 Cs:    0.545797

  Mayer bond orders larger than 0.1
B(  0-Pb,  1-Cl) :   0.7015 B(  0-Pb,  2-Cl) :   0.7266 B(  0-Pb,  3-Cl) :   0.6062
B(  1-Cl,  4-Cs) :   0.1016 B(  3-Cl,  4-Cs) :   0.1578

FINAL SINGLE POINT ENERGY     -1595.063125567918

DIPOLE MOMENT
-------------
                                X             Y             Z
Electronic contribution:     44.06854      30.63635      51.13539
Nuclear contribution   :    -41.28032     -28.21938     -48.34042
                        -----------------------------------------
Total Dipole Moment    :      2.78821       2.41697       2.79497
                        -----------------------------------------
Magnitude (a.u.)       :      4.62901
Magnitude (Debye)      :     11.76602

                             ****ORCA TERMINATED NORMALLY****
TOTAL RUN TIME: 0 days 0 hours 12 minutes 45 seconds 742 msec
