                         Program Version 3.0.3 - RELEASE   -
|  1> ! RIJCOSX RI-B2PLYP D3BJ def2-TZVP ECP{def2-TZVP} TIGHTSCF Grid5 FinalGrid6 SlowConv MORead
|  2> %method
|  3>  RunTyp Gradient
|  4>  end
|  5> %maxcore 1000
|  6> %moinp "previous.gbw"
|  7> *xyz 0 1
|  8> C -0.394281 0.276013 -0.426662
|  9> N -1.165380 -0.685592 -1.253010
| 10> H 0.248796 -0.278576 0.260517
| 11> H -1.090820 0.897444 0.140826
| 12> H 0.215705 0.904875 -1.079130
| 13> H -1.783150 -1.324970 -0.698370
| 14> H -0.582260 -1.326300 -1.835140
| 15> H -1.813140 -0.240924 -1.938260
| 16> Pb -2.586590 -2.502630 -3.150380
| 17> Cl -0.161170 -2.134080 -3.606810
| 18> Cl -3.543070 -0.179526 -2.915050
| 19> Cl -2.596760 -3.394210 -0.821332
| 20> *
| 21>
| 22>                          ****END OF INPUT****

CARTESIAN COORDINATES (ANGSTROEM)
---------------------------------
  C     -0.394281    0.276013   -0.426662
  N     -1.165380   -0.685592   -1.253010
  H      0.248796   -0.278576    0.260517
  H     -1.090820    0.897444    0.140826
  H      0.215705    0.904875   -1.079130
  H     -1.783150   -1.324970   -0.698370
  H     -0.582260   -1.326300   -1.835140
  H     -1.813140   -0.240924   -1.938260
  Pb    -2.586590   -2.502630   -3.150380
  Cl    -0.161170   -2.134080   -3.606810
  Cl    -3.543070   -0.179526   -2.915050
  Cl    -2.596760   -3.394210   -0.821332

 Total Charge           Charge          ....    0
 Multiplicity           Mult            ....    1
 Number of Electrons    NEL             ....   92
 Basis Dimension        Dim             ....  259

ORBITAL ENERGIES
----------------

  NO   OCC          E(Eh)            E(eV)
   0   2.0000    -102.867144     -2799.1573
   1   2.0000    -102.864929     -2799.0970
   2   2.0000    -102.862750     -2799.0377
   3   2.0000     -14.957106      -407.0035
   4   2.0000     -10.709002      -291.4068
   5   2.0000      -9.875761      -268.7331
   6   2.0000      -9.873277      -268.6655
   7   2.0000      -9.870705      -268.5955
   8   2.0000      -7.512668      -204.4301
   9   2.0000      -7.511135      -204.3884
  10   2.0000      -7.510637      -204.3748
  11   2.0000      -7.510181      -204.3624
  12   2.0000      -7.508713      -204.3225
  13   2.0000      -7.508196      -204.3084
  14   2.0000      -7.507783      -204.2972
  15   2.0000      -7.506015      -204.2491
  16   2.0000      -7.505657      -204.2393
  17   2.0000      -5.799057      -157.8004
  18   2.0000      -3.570932       -97.1700
  19   2.0000      -3.569301       -97.1256
  20   2.0000      -3.569035       -97.1184
  21   2.0000      -1.143910       -31.1274
  22   2.0000      -0.977035       -26.5865
  23   2.0000      -0.975690       -26.5499
  24   2.0000      -0.963273       -26.2120
  25   2.0000      -0.959220       -26.1017
  26   2.0000      -0.958609       -26.0851
  27   2.0000      -0.908904       -24.7325
  28   2.0000      -0.880455       -23.9584
  29   2.0000      -0.874609       -23.7993
  30   2.0000      -0.857281       -23.3278
  31   2.0000      -0.670422       -18.2431
  32   2.0000      -0.669240       -18.2109
  33   2.0000      -0.609224       -16.5778
  34   2.0000      -0.559998       -15.2383
  35   2.0000      -0.522216       -14.2102
  36   2.0000      -0.521091       -14.1796
  37   2.0000      -0.403348       -10.9756
  38   2.0000      -0.401090       -10.9142
  39   2.0000      -0.381728       -10.3874
  40   2.0000      -0.365292        -9.9401
  41   2.0000      -0.364783        -9.9262
  42   2.0000      -0.361866        -9.8469
  43   2.0000      -0.359667        -9.7870
  44   2.0000      -0.353522        -9.6198
  45   2.0000      -0.290024        -7.8920
  46   0.0000      -0.006735        -0.1833
  47   0.0000       0.032272         0.8782
  48   0.0000       0.032841         0.8936
  49   0.0000       0.042689         1.1616
  50   0.0000       0.089967         2.4481

Dispersion correction            ...

MULLIKEN ATOMIC CHARGES
-----------------------
   0 C :   -0.285812
   1 N :   -0.313372
   2 H :    0.162587
   3 H :    0.162829
   4 H :    0.164288
   5 H :    0.290035
   6 H :    0.288418
   7 H :    0.289000
   8 Pb:    0.712082
   9 Cl:   -0.486263
  10 Cl:   -0.491948
  11 Cl:   -0.491843
Sum of atomic charges:   -0.0000000

LOEWDIN ATOMIC CHARGES
----------------------
   0 C :   -0.286830
   1 N :    0.059910
   2 H :    0.128027
   3 H :    0.128235
   4 H :    0.129233
   5 H :    0.174090
   6 H :    0.144009
   7 H :    0.142296
   8 Pb:   -0.147012
   9 Cl:   -0.145214
  10 Cl:   -0.162758
  11 Cl:   -0.163986

  Mayer bond orders larger than 0.1
B(  0-C ,  1-N ) :   0.8877 B(  0-C ,  2-H ) :   0.9523 B(  0-C ,  3-H ) :   0.9516
B(  0-C ,  4-H ) :   0.9523 B(  1-N ,  5-H ) :   0.8160 B(  1-N ,  6-H ) :   0.7797
B(  1-N ,  7-H ) :   0.7786 B(  5-H , 11-Cl) :   0.1168 B(  6-H ,  9-Cl) :   0.1718
B(  7-H , 10-Cl) :   0.1771 B(  8-Pb,  9-Cl) :   0.6580 B(  8-Pb, 10-Cl) :   0.6443
B(  8-Pb, 11-Cl) :   0.6940

MP2 TOTAL ENERGY:    -1669.600994257 Eh
Dispersion correction           -0.014472283
FINAL SINGLE POINT ENERGY     -1669.615466539739

DIPOLE MOMENT
-------------
                                X             Y             Z
Electronic contribution:    -55.22978     -69.48596     -74.36701
Nuclear contribution   :     56.06193      70.54751      75.29907
                        -----------------------------------------
Total Dipole Moment    :      0.83215       1.06156       0.93207
                        -----------------------------------------
Magnitude (a.u.)       :      1.63955
Magnitude (Debye)      :      4.16740

                             ****ORCA TERMINATED NORMALLY****
TOTAL RUN TIME: 0 days 0 hours 12 minutes 24 seconds 562 msec
