                         Program Version 3.0.3 - RELEASE   -
|  1> ! PW6B95 def2-TZVP GCP(DFT/TZ) ECP{def2-TZVP} Grid7 MORead
|  2> %pal nprocs 2 end
|  3> %method
|  4>  RunTyp Gradient
|  5>  end
|  6> %maxcore 2000
|  7> %moinp "previous.gbw"
|  8> *xyz 1 1
|  9> Cs 2.725482 3.194350 2.330792
| 10> *
| 11>
| 12>                          ****END OF INPUT****

CARTESIAN COORDINATES (ANGSTROEM)
---------------------------------
  Cs     2.725482    3.194350    2.330792

 Total Charge           Charge          ....    1
 Multiplicity           Mult            ....    1
 Number of Electrons    NEL             ....    8
 Basis Dimension        Dim             ....   29

ORBITAL ENERGIES
----------------

  NO   OCC          E(Eh)            E(eV)
   0   2.0000      -1.273757       -34.6607
   1   2.0000      -0.741668       -20.1818
   2   2.0000      -0.741668       -20.1818
   3   2.0000      -0.741668       -20.1818
   4   0.0000      -0.187504        -5.1023
   5   0.0000      -0.128450        -3.4953
   6   0.0000      -0.128450        -3.4953
   7   0.0000      -0.128450        -3.4953
   8   0.0000      -0.128450        -3.4953

MULLIKEN ATOMIC CHARGES
-----------------------
   0 Cs:    1.000000
Sum of atomic charges:    1.0000000

LOEWDIN ATOMIC CHARGES
----------------------
   0 Cs:    1.000000

FINAL SINGLE POINT ENERGY       -19.985608985708

DIPOLE MOMENT
-------------
                                X             Y             Z
Electronic contribution:     -0.00000       0.00000      -0.00000
Nuclear contribution   :      0.00000       0.00000       0.00000
                        -----------------------------------------
Total Dipole Moment    :     -0.00000       0.00000      -0.00000
                        -----------------------------------------
Magnitude (a.u.)       :      0.00000
Magnitude (Debye)      :      0.00000

                             ****ORCA TERMINATED NORMALLY****
TOTAL RUN TIME: 0 days 0 hours 0 minutes 59 seconds 927 msec
