                         Program Version 3.0.3 - RELEASE   -
|  1> ! RIJCOSX RI-B2PLYP D3BJ def2-TZVP ECP{def2-TZVP} TIGHTSCF Grid5 FinalGrid6 SlowConv MORead
|  2> %method
|  3>  RunTyp Gradient
|  4>  end
|  5> %maxcore 1000
|  6> %moinp "previous.gbw"
|  7> *xyz 0 1
|  8> C -0.394281 0.276013 -0.426662
|  9> N -1.165380 -0.685592 -1.253010
| 10> H 0.248796 -0.278576 0.260517
| 11> H -1.090820 0.897444 0.140826
| 12> H 0.215705 0.904875 -1.079130
| 13> H -1.783150 -1.324970 -0.698370
| 14> H -0.582260 -1.326300 -1.835140
| 15> H -1.813140 -0.240924 -1.938260
| 16> Pb -2.707690 -4.127050 -2.682500
| 17> Cl -1.812880 -3.043980 -4.837020
| 18> Cl -2.803490 1.096080 -2.976840
| 19> Cl -4.821070 -3.137350 -1.600920
| 20> *
| 21>
| 22>                          ****END OF INPUT****

CARTESIAN COORDINATES (ANGSTROEM)
---------------------------------
  C     -0.394281    0.276013   -0.426662
  N     -1.165380   -0.685592   -1.253010
  H      0.248796   -0.278576    0.260517
  H     -1.090820    0.897444    0.140826
  H      0.215705    0.904875   -1.079130
  H     -1.783150   -1.324970   -0.698370
  H     -0.582260   -1.326300   -1.835140
  H     -1.813140   -0.240924   -1.938260
  Pb    -2.707690   -4.127050   -2.682500
  Cl    -1.812880   -3.043980   -4.837020
  Cl    -2.803490    1.096080   -2.976840
  Cl    -4.821070   -3.137350   -1.600920

 Total Charge           Charge          ....    0
 Multiplicity           Mult            ....    1
 Number of Electrons    NEL             ....   92
 Basis Dimension        Dim             ....  259

ORBITAL ENERGIES
----------------

  NO   OCC          E(Eh)            E(eV)
   0   2.0000    -102.884269     -2799.6233
   1   2.0000    -102.883175     -2799.5935
   2   2.0000    -102.748718     -2795.9348
   3   2.0000     -14.985931      -407.7879
   4   2.0000     -10.713746      -291.5358
   5   2.0000      -9.889808      -269.1154
   6   2.0000      -9.888640      -269.0836
   7   2.0000      -9.754749      -265.4402
   8   2.0000      -7.527070      -204.8220
   9   2.0000      -7.525914      -204.7905
  10   2.0000      -7.525269      -204.7730
  11   2.0000      -7.524572      -204.7540
  12   2.0000      -7.524101      -204.7412
  13   2.0000      -7.523393      -204.7219
  14   2.0000      -7.391575      -201.1350
  15   2.0000      -7.390456      -201.1045
  16   2.0000      -7.390445      -201.1042
  17   2.0000      -5.867604      -159.6656
  18   2.0000      -3.642980       -99.1305
  19   2.0000      -3.636609       -98.9572
  20   2.0000      -3.634174       -98.8909
  21   2.0000      -1.155519       -31.4433
  22   2.0000      -1.033365       -28.1193
  23   2.0000      -1.028592       -27.9894
  24   2.0000      -1.027013       -27.9464
  25   2.0000      -1.026267       -27.9262
  26   2.0000      -1.022241       -27.8166
  27   2.0000      -0.896622       -24.3983
  28   2.0000      -0.887341       -24.1458
  29   2.0000      -0.868013       -23.6198
  30   2.0000      -0.768430       -20.9100
  31   2.0000      -0.686082       -18.6692
  32   2.0000      -0.669811       -18.2265
  33   2.0000      -0.610203       -16.6045
  34   2.0000      -0.596870       -16.2417
  35   2.0000      -0.523286       -14.2393
  36   2.0000      -0.522379       -14.2147
  37   2.0000      -0.411553       -11.1989
  38   2.0000      -0.378790       -10.3074
  39   2.0000      -0.377719       -10.2783
  40   2.0000      -0.366741        -9.9795
  41   2.0000      -0.363024        -9.8784
  42   2.0000      -0.339744        -9.2449
  43   2.0000      -0.262285        -7.1371
  44   2.0000      -0.248478        -6.7614
  45   2.0000      -0.248328        -6.7574
  46   0.0000      -0.114436        -3.1140
  47   0.0000      -0.055548        -1.5115
  48   0.0000      -0.011544        -0.3141
  49   0.0000       0.008869         0.2413
  50   0.0000       0.060930         1.6580

Dispersion correction            ...

MULLIKEN ATOMIC CHARGES
-----------------------
   0 C :   -0.256052
   1 N :   -0.290902
   2 H :    0.138123
   3 H :    0.178360
   4 H :    0.177686
   5 H :    0.266961
   6 H :    0.267468
   7 H :    0.253296
   8 Pb:    0.800776
   9 Cl:   -0.394548
  10 Cl:   -0.738048
  11 Cl:   -0.403120
Sum of atomic charges:   -0.0000000

LOEWDIN ATOMIC CHARGES
----------------------
   0 C :   -0.287429
   1 N :    0.094271
   2 H :    0.117464
   3 H :    0.136183
   4 H :    0.135815
   5 H :    0.196684
   6 H :    0.195115
   7 H :    0.108629
   8 Pb:    0.275134
   9 Cl:   -0.137992
  10 Cl:   -0.689120
  11 Cl:   -0.144753

  Mayer bond orders larger than 0.1
B(  0-C ,  1-N ) :   0.8775 B(  0-C ,  2-H ) :   0.9471 B(  0-C ,  3-H ) :   0.9458
B(  0-C ,  4-H ) :   0.9462 B(  1-N ,  5-H ) :   0.8787 B(  1-N ,  6-H ) :   0.8796
B(  1-N ,  7-H ) :   0.6586 B(  7-H , 10-Cl) :   0.4129 B(  8-Pb,  9-Cl) :   0.9488
B(  8-Pb, 11-Cl) :   0.9344

MP2 TOTAL ENERGY:    -1669.535469802 Eh
Dispersion correction           -0.009785241
FINAL SINGLE POINT ENERGY     -1669.545255043323

DIPOLE MOMENT
-------------
                                X             Y             Z
Electronic contribution:    -15.92154    -184.71906     -13.46301
Nuclear contribution   :     18.82318     181.21652      16.37899
                        -----------------------------------------
Total Dipole Moment    :      2.90164      -3.50254       2.91598
                        -----------------------------------------
Magnitude (a.u.)       :      5.40280
Magnitude (Debye)      :     13.73283

                             ****ORCA TERMINATED NORMALLY****
TOTAL RUN TIME: 0 days 0 hours 14 minutes 55 seconds 397 msec
