                         Program Version 3.0.3 - RELEASE   -
|  1> ! RIJCOSX RI-B2PLYP D3BJ def2-TZVP ECP{def2-TZVP} TIGHTSCF Grid5 FinalGrid6 MORead
|  2> %method
|  3>  RunTyp Gradient
|  4>  end
|  5> %maxcore 1000
|  6> %moinp "previous.gbw"
|  7> *xyz -2 1
|  8> C 2.821971 3.493173 2.716929
|  9> N 2.031893 2.485380 2.005967
| 10> H 3.493737 3.003675 3.431461
| 11> H 2.156449 4.174155 3.259759
| 12> H 3.419280 4.070497 2.001994
| 13> H 1.424368 1.881241 2.639320
| 14> H 2.617127 1.787701 1.451958
| 15> H 1.353302 2.890520 1.291746
| 16> Pb 0.076381 -0.028453 0.194294
| 17> Cl 3.155249 0.280169 0.271961
| 18> Cl -0.042158 3.024398 -0.116277
| 19> Cl 0.135544 0.483655 3.245443
| 20> Cl -2.992571 -0.324521 0.169239
| 21> Cl 0.032118 -0.551381 -2.834815
| 22> Cl 0.167907 -3.080463 0.551657
| 23> N -1.884966 -2.527607 -1.578982
| 24> C -2.664881 -3.549172 -2.281400
| 25> H -2.474954 -1.829497 -1.031708
| 26> H -1.279571 -1.925402 -2.215561
| 27> H -3.259633 -4.123288 -1.561779
| 28> H -1.991792 -4.230944 -2.813775
| 29> H -3.338231 -3.073756 -3.003955
| 30> H -1.204879 -2.923566 -0.859634
| 31> *
| 32>
| 33>                          ****END OF INPUT****

CARTESIAN COORDINATES (ANGSTROEM)
---------------------------------
  C      2.821971    3.493173    2.716929
  N      2.031893    2.485380    2.005967
  H      3.493737    3.003675    3.431461
  H      2.156449    4.174155    3.259759
  H      3.419280    4.070497    2.001994
  H      1.424368    1.881241    2.639320
  H      2.617127    1.787701    1.451958
  H      1.353302    2.890520    1.291746
  Pb     0.076381   -0.028453    0.194294
  Cl     3.155249    0.280169    0.271961
  Cl    -0.042158    3.024398   -0.116277
  Cl     0.135544    0.483655    3.245443
  Cl    -2.992571   -0.324521    0.169239
  Cl     0.032118   -0.551381   -2.834815
  Cl     0.167907   -3.080463    0.551657
  N     -1.884966   -2.527607   -1.578982
  C     -2.664881   -3.549172   -2.281400
  H     -2.474954   -1.829497   -1.031708
  H     -1.279571   -1.925402   -2.215561
  H     -3.259633   -4.123288   -1.561779
  H     -1.991792   -4.230944   -2.813775
  H     -3.338231   -3.073756   -3.003955
  H     -1.204879   -2.923566   -0.859634

 Total Charge           Charge          ....   -2
 Multiplicity           Mult            ....    1
 Number of Electrons    NEL             ....  164
 Basis Dimension        Dim             ....  468

ORBITAL ENERGIES
----------------

  NO   OCC          E(Eh)            E(eV)
   0   2.0000    -102.582046     -2791.3994
   1   2.0000    -102.581744     -2791.3912
   2   2.0000    -102.581568     -2791.3864
   3   2.0000    -102.581042     -2791.3721
   4   2.0000    -102.580509     -2791.3576
   5   2.0000    -102.579496     -2791.3300
   6   2.0000     -14.690892      -399.7595
   7   2.0000     -14.690270      -399.7426
   8   2.0000     -10.490651      -285.4651
   9   2.0000     -10.490165      -285.4519
  10   2.0000      -9.588660      -260.9207
  11   2.0000      -9.588432      -260.9145
  12   2.0000      -9.588230      -260.9090
  13   2.0000      -9.587651      -260.8933
  14   2.0000      -9.587122      -260.8788
  15   2.0000      -9.586085      -260.8506
  16   2.0000      -7.225066      -196.6040
  17   2.0000      -7.224842      -196.5980
  18   2.0000      -7.224824      -196.5974
  19   2.0000      -7.224642      -196.5925
  20   2.0000      -7.224630      -196.5922
  21   2.0000      -7.224409      -196.5862
  22   2.0000      -7.224151      -196.5791
  23   2.0000      -7.224053      -196.5765
  24   2.0000      -7.223904      -196.5724
  25   2.0000      -7.223841      -196.5707
  26   2.0000      -7.223708      -196.5671
  27   2.0000      -7.223513      -196.5618
  28   2.0000      -7.223323      -196.5566
  29   2.0000      -7.223138      -196.5516
  30   2.0000      -7.222612      -196.5373
  31   2.0000      -7.222490      -196.5339
  32   2.0000      -7.222277      -196.5282
  33   2.0000      -7.221579      -196.5092
  34   2.0000      -5.562188      -151.3548
  35   2.0000      -3.332734       -90.6883
  36   2.0000      -3.332104       -90.6711
  37   2.0000      -3.332076       -90.6704
  38   2.0000      -0.879508       -23.9326
  39   2.0000      -0.878753       -23.9121
  40   2.0000      -0.721059       -19.6210
  41   2.0000      -0.720930       -19.6175
  42   2.0000      -0.719910       -19.5897
  43   2.0000      -0.718545       -19.5526
  44   2.0000      -0.718517       -19.5518
  45   2.0000      -0.633708       -17.2441
  46   2.0000      -0.632875       -17.2214
  47   2.0000      -0.600991       -16.3538
  48   2.0000      -0.600263       -16.3340
  49   2.0000      -0.598309       -16.2808
  50   2.0000      -0.597226       -16.2513
  51   2.0000      -0.596140       -16.2218
  52   2.0000      -0.593039       -16.1374
  53   2.0000      -0.410385       -11.1671
  54   2.0000      -0.410216       -11.1625
  55   2.0000      -0.409673       -11.1478
  56   2.0000      -0.409523       -11.1437
  57   2.0000      -0.362604        -9.8670
  58   2.0000      -0.361818        -9.8456
  59   2.0000      -0.290735        -7.9113
  60   2.0000      -0.290273        -7.8987
  61   2.0000      -0.290189        -7.8964
  62   2.0000      -0.289644        -7.8816
  63   2.0000      -0.289637        -7.8814
  64   2.0000      -0.114509        -3.1160
  65   2.0000      -0.109151        -2.9702
  66   2.0000      -0.108757        -2.9594
  67   2.0000      -0.097317        -2.6481
  68   2.0000      -0.089174        -2.4265
  69   2.0000      -0.086334        -2.3493
  70   2.0000      -0.085916        -2.3379
  71   2.0000      -0.082245        -2.2380
  72   2.0000      -0.081876        -2.2280
  73   2.0000      -0.081811        -2.2262
  74   2.0000      -0.081214        -2.2099
  75   2.0000      -0.078665        -2.1406
  76   2.0000      -0.078243        -2.1291
  77   2.0000      -0.077652        -2.1130
  78   2.0000      -0.077509        -2.1091
  79   2.0000      -0.075269        -2.0482
  80   2.0000      -0.071016        -1.9324
  81   2.0000      -0.044407        -1.2084
  82   0.0000       0.241268         6.5652
  83   0.0000       0.241670         6.5762
  84   0.0000       0.258275         7.0280
  85   0.0000       0.260881         7.0989
  86   0.0000       0.261392         7.1128

Dispersion correction            ...

MULLIKEN ATOMIC CHARGES
-----------------------
   0 C :   -0.269736
   1 N :   -0.287968
   2 H :    0.118625
   3 H :    0.118655
   4 H :    0.119355
   5 H :    0.259069
   6 H :    0.260881
   7 H :    0.261274
   8 Pb:    1.029925
   9 Cl:   -0.700620
  10 Cl:   -0.697562
  11 Cl:   -0.700219
  12 Cl:   -0.697570
  13 Cl:   -0.697624
  14 Cl:   -0.696499
  15 N :   -0.289481
  16 C :   -0.269856
  17 H :    0.259361
  18 H :    0.259077
  19 H :    0.120224
  20 H :    0.119384
  21 H :    0.117743
  22 H :    0.263562
Sum of atomic charges:   -2.0000000

LOEWDIN ATOMIC CHARGES
----------------------
   0 C :   -0.339730
   1 N :    0.033464
   2 H :    0.112043
   3 H :    0.111905
   4 H :    0.112176
   5 H :    0.133677
   6 H :    0.133116
   7 H :    0.133000
   8 Pb:    0.158529
   9 Cl:   -0.507822
  10 Cl:   -0.498521
  11 Cl:   -0.508195
  12 Cl:   -0.503640
  13 Cl:   -0.502375
  14 Cl:   -0.497103
  15 N :    0.033095
  16 C :   -0.339505
  17 H :    0.133526
  18 H :    0.134068
  19 H :    0.112525
  20 H :    0.112262
  21 H :    0.111659
  22 H :    0.131846

  Mayer bond orders larger than 0.1
B(  0-C ,  1-N ) :   0.9404 B(  0-C ,  2-H ) :   0.9607 B(  0-C ,  3-H ) :   0.9602
B(  0-C ,  4-H ) :   0.9601 B(  1-N ,  5-H ) :   0.7469 B(  1-N ,  6-H ) :   0.7455
B(  1-N ,  7-H ) :   0.7475 B(  5-H , 11-Cl) :   0.2656 B(  6-H ,  9-Cl) :   0.2661
B(  7-H , 10-Cl) :   0.2620 B(  8-Pb,  9-Cl) :   0.2658 B(  8-Pb, 10-Cl) :   0.2734
B(  8-Pb, 11-Cl) :   0.2669 B(  8-Pb, 12-Cl) :   0.2713 B(  8-Pb, 13-Cl) :   0.2743
B(  8-Pb, 14-Cl) :   0.2704 B( 12-Cl, 17-H ) :   0.2657 B( 13-Cl, 18-H ) :   0.2621
B( 14-Cl, 22-H ) :   0.2669 B( 15-N , 16-C ) :   0.9403 B( 15-N , 17-H ) :   0.7467
B( 15-N , 18-H ) :   0.7491 B( 15-N , 22-H ) :   0.7431 B( 16-C , 19-H ) :   0.9601
B( 16-C , 20-H ) :   0.9602 B( 16-C , 21-H ) :   0.9607

MP2 TOTAL ENERGY:    -3146.564586996 Eh
Dispersion correction           -0.027803645
FINAL SINGLE POINT ENERGY     -3146.592390640408

DIPOLE MOMENT
-------------
                                X             Y             Z
Electronic contribution:      0.01384      -0.14820      -1.91715
Nuclear contribution   :     -0.03233       0.14608       1.84527
                        -----------------------------------------
Total Dipole Moment    :     -0.01849      -0.00213      -0.07188
                        -----------------------------------------
Magnitude (a.u.)       :      0.07425
Magnitude (Debye)      :      0.18874

                             ****ORCA TERMINATED NORMALLY****
TOTAL RUN TIME: 0 days 0 hours 29 minutes 53 seconds 573 msec
