                         Program Version 3.0.3 - RELEASE   -
|  1> ! PW6B95 def2-TZVP GCP(DFT/TZ) ECP{def2-TZVP} Grid7 MORead
|  2> %pal nprocs 2 end
|  3> %method
|  4>  RunTyp Gradient
|  5>  end
|  6> %maxcore 2000
|  7> %moinp "previous.gbw"
|  8> *xyz -1 1
|  9> Pb 0.408419 0.427797 0.434273
| 10> Cl 2.962167 0.343918 0.064478
| 11> Cl -0.045853 2.916970 -0.079540
| 12> Cl 0.322410 0.472158 3.014160
| 13> *
| 14>
| 15>                          ****END OF INPUT****

CARTESIAN COORDINATES (ANGSTROEM)
---------------------------------
  Pb     0.408419    0.427797    0.434273
  Cl     2.962167    0.343918    0.064478
  Cl    -0.045853    2.916970   -0.079540
  Cl     0.322410    0.472158    3.014160

 Total Charge           Charge          ....   -1
 Multiplicity           Mult            ....    1
 Number of Electrons    NEL             ....   74
 Basis Dimension        Dim             ....  161

ORBITAL ENERGIES
----------------

  NO   OCC          E(Eh)            E(eV)
   0   2.0000    -101.717431     -2767.8720
   1   2.0000    -101.717429     -2767.8719
   2   2.0000    -101.717399     -2767.8711
   3   2.0000      -9.357911      -254.6417
   4   2.0000      -9.357908      -254.6416
   5   2.0000      -9.357878      -254.6408
   6   2.0000      -7.087576      -192.8628
   7   2.0000      -7.087573      -192.8627
   8   2.0000      -7.087543      -192.8619
   9   2.0000      -7.084846      -192.7884
  10   2.0000      -7.084843      -192.7884
  11   2.0000      -7.084818      -192.7877
  12   2.0000      -7.084815      -192.7876
  13   2.0000      -7.084813      -192.7875
  14   2.0000      -7.084785      -192.7868
  15   2.0000      -5.415765      -147.3704
  16   2.0000      -3.239128       -88.1412
  17   2.0000      -3.239127       -88.1411
  18   2.0000      -3.239049       -88.1390
  19   2.0000      -0.736747       -20.0479
  20   2.0000      -0.736742       -20.0478
  21   2.0000      -0.729946       -19.8628
  22   2.0000      -0.729503       -19.8508
  23   2.0000      -0.729501       -19.8507
  24   2.0000      -0.636948       -17.3322
  25   2.0000      -0.619074       -16.8459
  26   2.0000      -0.619056       -16.8454
  27   2.0000      -0.359857        -9.7922
  28   2.0000      -0.189241        -5.1495
  29   2.0000      -0.189225        -5.1491
  30   2.0000      -0.168780        -4.5927
  31   2.0000      -0.154088        -4.1930
  32   2.0000      -0.154081        -4.1928
  33   2.0000      -0.145358        -3.9554
  34   2.0000      -0.145348        -3.9551
  35   2.0000      -0.143013        -3.8916
  36   2.0000      -0.116505        -3.1703
  37   0.0000       0.110339         3.0025
  38   0.0000       0.126182         3.4336
  39   0.0000       0.126207         3.4343
  40   0.0000       0.230625         6.2756
  41   0.0000       0.241550         6.5729

MULLIKEN ATOMIC CHARGES
-----------------------
   0 Pb:    0.731929
   1 Cl:   -0.577254
   2 Cl:   -0.577386
   3 Cl:   -0.577289
Sum of atomic charges:   -1.0000000

LOEWDIN ATOMIC CHARGES
----------------------
   0 Pb:   -0.132140
   1 Cl:   -0.289245
   2 Cl:   -0.289394
   3 Cl:   -0.289221

  Mayer bond orders larger than 0.1
B(  0-Pb,  1-Cl) :   0.7105 B(  0-Pb,  2-Cl) :   0.7103 B(  0-Pb,  3-Cl) :   0.7105

FINAL SINGLE POINT ENERGY     -1574.934341468615

DIPOLE MOMENT
-------------
                                X             Y             Z
Electronic contribution:    -34.55422     -42.04047     -29.11068
Nuclear contribution   :     33.27824      40.48748      28.03581
                        -----------------------------------------
Total Dipole Moment    :     -1.27599      -1.55300      -1.07488
                        -----------------------------------------
Magnitude (a.u.)       :      2.27932
Magnitude (Debye)      :      5.79357

                             ****ORCA TERMINATED NORMALLY****
TOTAL RUN TIME: 0 days 0 hours 8 minutes 37 seconds 877 msec
