                         Program Version 3.0.3 - RELEASE   -
|  1> ! RIJCOSX RI-B2PLYP D3BJ def2-TZVP ECP{def2-TZVP} TIGHTSCF Grid5 FinalGrid6 MORead
|  2> %maxcore 4000
|  3> %moinp "previous.gbw"
|  4> *xyz -1 1
|  5> C 3.321334 3.304660 2.430157
|  6> N 2.356571 2.328752 1.891132
|  7> H 3.929482 2.825089 3.202898
|  8> H 2.779051 4.148026 2.867131
|  9> H 3.970752 3.667461 1.628343
| 10> H 1.712427 1.919960 2.626954
| 11> H 2.798301 1.476145 1.466883
| 12> H 1.726191 2.717573 1.143366
| 13> Pb 0.044610 -0.196880 0.736926
| 14> Cl 2.778912 -0.523475 0.809873
| 15> Cl 0.268075 2.893160 -0.270155
| 16> Cl 0.399868 0.661202 3.497951
| 17> Cl -3.319849 -0.324404 -0.060641
| 18> Cl -0.006686 -1.178421 -2.227417
| 19> Cl -0.539733 -2.713063 1.852295
| 20> N -2.185808 -3.054212 -0.959335
| 21> C -3.018599 -3.892984 -1.852407
| 22> H -2.697680 -2.199715 -0.614166
| 23> H -1.345672 -2.675212 -1.453465
| 24> H -3.863008 -4.284793 -1.282203
| 25> H -2.403708 -4.719219 -2.215644
| 26> H -3.366846 -3.277457 -2.686457
| 27> H -1.855008 -3.591944 -0.148281
| 28> Cl 3.302075 -4.781266 1.526498
| 29> Cl 0.971413 -5.250102 4.856666
| 30> Pb 0.317926 -5.511248 1.510558
| 31> N 2.161285 -2.658962 3.515767
| 32> C 3.006676 -1.740565 4.311813
| 33> H 2.698023 -3.156655 2.770259
| 34> H 1.390718 -2.163400 3.045648
| 35> H 3.799912 -2.319606 4.793333
| 36> H 2.384520 -1.246095 5.060700
| 37> H 3.427402 -0.991699 3.638613
| 38> H 1.731703 -3.427574 4.095222
| 39> Cl 0.348484 -5.396525 -1.301151
| 40> H -2.444419 -8.567556 -2.232135
| 41> H -0.598109 -7.323819 -1.165277
| 42> H -1.004862 -9.612620 -2.073837
| 43> C -1.775778 -9.065444 -1.523604
| 44> N -1.147567 -8.055720 -0.651573
| 45> Cl -2.551187 -5.959537 1.083500
| 46> H -1.842497 -7.478800 -0.094428
| 47> H -0.483324 -8.457680 0.056334
| 48> H -2.352281 -9.766255 -0.913124
| 49> Cl 0.904600 -8.597973 1.615232
| 50> H -3.020852 1.137851 -3.759427
| 51> H -2.443836 0.935457 -1.388789
| 52> C -2.421148 1.915242 -3.276964
| 53> H -3.072919 2.741318 -2.978333
| 54> N -1.760461 1.345922 -2.088558
| 55> H -1.130632 0.530708 -2.323343
| 56> H -1.666594 2.281032 -3.979276
| 57> H -1.165922 2.035435 -1.571092
| 58> H 3.622704 -8.508951 4.939340
| 59> H 2.344608 -7.817453 2.937850
| 60> C 4.032137 -7.791101 4.222778
| 61> H 4.696529 -8.309487 3.525223
| 62> N 2.932785 -7.146076 3.481813
| 63> H 2.277052 -6.592786 4.110347
| 64> H 4.597499 -7.025510 4.762093
| 65> H 3.269849 -6.425562 2.787786
| 66> *
| 67>
| 68>                          ****END OF INPUT****

CARTESIAN COORDINATES (ANGSTROEM)
---------------------------------
  C      3.321334    3.304660    2.430157
  N      2.356571    2.328752    1.891132
  H      3.929482    2.825089    3.202898
  H      2.779051    4.148026    2.867131
  H      3.970752    3.667461    1.628343
  H      1.712427    1.919960    2.626954
  H      2.798301    1.476145    1.466883
  H      1.726191    2.717573    1.143366
  Pb     0.044610   -0.196880    0.736926
  Cl     2.778912   -0.523475    0.809873
  Cl     0.268075    2.893160   -0.270155
  Cl     0.399868    0.661202    3.497951
  Cl    -3.319849   -0.324404   -0.060641
  Cl    -0.006686   -1.178421   -2.227417
  Cl    -0.539733   -2.713063    1.852295
  N     -2.185808   -3.054212   -0.959335
  C     -3.018599   -3.892984   -1.852407
  H     -2.697680   -2.199715   -0.614166
  H     -1.345672   -2.675212   -1.453465
  H     -3.863008   -4.284793   -1.282203
  H     -2.403708   -4.719219   -2.215644
  H     -3.366846   -3.277457   -2.686457
  H     -1.855008   -3.591944   -0.148281
  Cl     3.302075   -4.781266    1.526498
  Cl     0.971413   -5.250102    4.856666
  Pb     0.317926   -5.511248    1.510558
  N      2.161285   -2.658962    3.515767
  C      3.006676   -1.740565    4.311813
  H      2.698023   -3.156655    2.770259
  H      1.390718   -2.163400    3.045648
  H      3.799912   -2.319606    4.793333
  H      2.384520   -1.246095    5.060700
  H      3.427402   -0.991699    3.638613
  H      1.731703   -3.427574    4.095222
  Cl     0.348484   -5.396525   -1.301151
  H     -2.444419   -8.567556   -2.232135
  H     -0.598109   -7.323819   -1.165277
  H     -1.004862   -9.612620   -2.073837
  C     -1.775778   -9.065444   -1.523604
  N     -1.147567   -8.055720   -0.651573
  Cl    -2.551187   -5.959537    1.083500
  H     -1.842497   -7.478800   -0.094428
  H     -0.483324   -8.457680    0.056334
  H     -2.352281   -9.766255   -0.913124
  Cl     0.904600   -8.597973    1.615232
  H     -3.020852    1.137851   -3.759427
  H     -2.443836    0.935457   -1.388789
  C     -2.421148    1.915242   -3.276964
  H     -3.072919    2.741318   -2.978333
  N     -1.760461    1.345922   -2.088558
  H     -1.130632    0.530708   -2.323343
  H     -1.666594    2.281032   -3.979276
  H     -1.165922    2.035435   -1.571092
  H      3.622704   -8.508951    4.939340
  H      2.344608   -7.817453    2.937850
  C      4.032137   -7.791101    4.222778
  H      4.696529   -8.309487    3.525223
  N      2.932785   -7.146076    3.481813
  H      2.277052   -6.592786    4.110347
  H      4.597499   -7.025510    4.762093
  H      3.269849   -6.425562    2.787786

 Total Charge           Charge          ....   -1
 Multiplicity           Mult            ....    1
 Number of Electrons    NEL             ....  346
 Basis Dimension        Dim             .... 1095

ORBITAL ENERGIES
----------------

  NO   OCC          E(Eh)            E(eV)
   0   2.0000    -102.755808     -2796.1277
   1   2.0000    -102.740569     -2795.7130
   2   2.0000    -102.739226     -2795.6765
   3   2.0000    -102.737758     -2795.6365
   4   2.0000    -102.733277     -2795.5146
   5   2.0000    -102.729049     -2795.3995
   6   2.0000    -102.728274     -2795.3784
   7   2.0000    -102.728116     -2795.3742
   8   2.0000    -102.720343     -2795.1626
   9   2.0000    -102.719923     -2795.1512
  10   2.0000    -102.714164     -2794.9945
  11   2.0000     -14.848576      -404.0503
  12   2.0000     -14.836233      -403.7144
  13   2.0000     -14.835818      -403.7031
  14   2.0000     -14.829273      -403.5250
  15   2.0000     -14.828495      -403.5039
  16   2.0000     -14.824708      -403.4008
  17   2.0000     -10.617560      -288.9185
  18   2.0000     -10.610017      -288.7132
  19   2.0000     -10.607447      -288.6433
  20   2.0000     -10.601344      -288.4772
  21   2.0000     -10.580437      -287.9083
  22   2.0000     -10.579053      -287.8707
  23   2.0000      -9.763379      -265.6750
  24   2.0000      -9.747806      -265.2513
  25   2.0000      -9.746237      -265.2086
  26   2.0000      -9.744376      -265.1580
  27   2.0000      -9.740129      -265.0424
  28   2.0000      -9.736009      -264.9303
  29   2.0000      -9.735567      -264.9182
  30   2.0000      -9.735222      -264.9089
  31   2.0000      -9.727361      -264.6950
  32   2.0000      -9.726997      -264.6851
  33   2.0000      -9.721366      -264.5318
  34   2.0000      -7.400156      -201.3685
  35   2.0000      -7.398855      -201.3331
  36   2.0000      -7.398823      -201.3322
  37   2.0000      -7.384124      -200.9322
  38   2.0000      -7.384035      -200.9298
  39   2.0000      -7.383286      -200.9094
  40   2.0000      -7.383070      -200.9036
  41   2.0000      -7.381963      -200.8734
  42   2.0000      -7.381503      -200.8609
  43   2.0000      -7.381198      -200.8526
  44   2.0000      -7.380151      -200.8241
  45   2.0000      -7.379687      -200.8115
  46   2.0000      -7.376612      -200.7278
  47   2.0000      -7.376138      -200.7149
  48   2.0000      -7.375603      -200.7004
  49   2.0000      -7.372518      -200.6164
  50   2.0000      -7.372000      -200.6023
  51   2.0000      -7.371972      -200.6016
  52   2.0000      -7.371687      -200.5938
  53   2.0000      -7.371469      -200.5879
  54   2.0000      -7.371447      -200.5873
  55   2.0000      -7.371281      -200.5828
  56   2.0000      -7.371096      -200.5777
  57   2.0000      -7.370861      -200.5713
  58   2.0000      -7.363631      -200.3746
  59   2.0000      -7.363308      -200.3658
  60   2.0000      -7.363194      -200.3627
  61   2.0000      -7.363184      -200.3624
  62   2.0000      -7.363125      -200.3608
  63   2.0000      -7.362664      -200.3483
  64   2.0000      -7.357679      -200.2126
  65   2.0000      -7.357263      -200.2013
  66   2.0000      -7.357188      -200.1993
  67   2.0000      -5.709542      -155.3645
  68   2.0000      -5.702024      -155.1600
  69   2.0000      -3.480659       -94.7136
  70   2.0000      -3.479395       -94.6792
  71   2.0000      -3.479106       -94.6713
  72   2.0000      -3.473032       -94.5060
  73   2.0000      -3.472006       -94.4781
  74   2.0000      -3.471672       -94.4690
  75   2.0000      -1.029918       -28.0255
  76   2.0000      -1.020211       -27.7614
  77   2.0000      -1.018685       -27.7198
  78   2.0000      -1.011470       -27.5235
  79   2.0000      -1.008274       -27.4365
  80   2.0000      -1.003924       -27.3182
  81   2.0000      -0.871165       -23.7056
  82   2.0000      -0.869196       -23.6520
  83   2.0000      -0.868103       -23.6223
  84   2.0000      -0.867327       -23.6012
  85   2.0000      -0.866191       -23.5703
  86   2.0000      -0.864832       -23.5333
  87   2.0000      -0.862875       -23.4800
  88   2.0000      -0.860881       -23.4258
  89   2.0000      -0.860118       -23.4050
  90   2.0000      -0.859091       -23.3771
  91   2.0000      -0.778495       -21.1839
  92   2.0000      -0.772922       -21.0323
  93   2.0000      -0.767310       -20.8796
  94   2.0000      -0.763109       -20.7653
  95   2.0000      -0.756463       -20.5844
  96   2.0000      -0.755739       -20.5647
  97   2.0000      -0.752430       -20.4747
  98   2.0000      -0.750930       -20.4338
  99   2.0000      -0.748568       -20.3696
 100   2.0000      -0.747303       -20.3351
 101   2.0000      -0.745520       -20.2866
 102   2.0000      -0.742065       -20.1926
 103   2.0000      -0.739409       -20.1203
 104   2.0000      -0.738661       -20.1000
 105   2.0000      -0.734323       -19.9819
 106   2.0000      -0.725804       -19.7501
 107   2.0000      -0.721881       -19.6434
 108   2.0000      -0.562877       -15.3167
 109   2.0000      -0.555213       -15.1081
 110   2.0000      -0.553759       -15.0686
 111   2.0000      -0.552501       -15.0343
 112   2.0000      -0.546860       -14.8808
 113   2.0000      -0.545336       -14.8393
 114   2.0000      -0.545072       -14.8322
 115   2.0000      -0.544038       -14.8040
 116   2.0000      -0.541924       -14.7465
 117   2.0000      -0.539176       -14.6717
 118   2.0000      -0.533096       -14.5063
 119   2.0000      -0.528234       -14.3740
 120   2.0000      -0.500867       -13.6293
 121   2.0000      -0.492159       -13.3923
 122   2.0000      -0.488754       -13.2997
 123   2.0000      -0.481713       -13.1081
 124   2.0000      -0.466714       -12.6999
 125   2.0000      -0.461026       -12.5451
 126   2.0000      -0.451817       -12.2946
 127   2.0000      -0.436573       -11.8798
 128   2.0000      -0.425788       -11.5863
 129   2.0000      -0.423250       -11.5172
 130   2.0000      -0.418420       -11.3858
 131   2.0000      -0.415964       -11.3189
 132   2.0000      -0.415469       -11.3055
 133   2.0000      -0.413267       -11.2456
 134   2.0000      -0.408870       -11.1259
 135   2.0000      -0.407158       -11.0793
 136   2.0000      -0.396627       -10.7928
 137   2.0000      -0.394283       -10.7290
 138   2.0000      -0.389888       -10.6094
 139   2.0000      -0.388314       -10.5666
 140   2.0000      -0.286572        -7.7980
 141   2.0000      -0.272943        -7.4272
 142   2.0000      -0.268225        -7.2988
 143   2.0000      -0.263728        -7.1764
 144   2.0000      -0.257586        -7.0093
 145   2.0000      -0.255659        -6.9568
 146   2.0000      -0.254116        -6.9149
 147   2.0000      -0.249906        -6.8003
 148   2.0000      -0.245187        -6.6719
 149   2.0000      -0.242275        -6.5926
 150   2.0000      -0.241463        -6.5705
 151   2.0000      -0.238908        -6.5010
 152   2.0000      -0.238554        -6.4914
 153   2.0000      -0.237455        -6.4615
 154   2.0000      -0.236297        -6.4300
 155   2.0000      -0.232845        -6.3360
 156   2.0000      -0.231786        -6.3072
 157   2.0000      -0.230433        -6.2704
 158   2.0000      -0.228946        -6.2299
 159   2.0000      -0.228678        -6.2226
 160   2.0000      -0.227153        -6.1812
 161   2.0000      -0.225350        -6.1321
 162   2.0000      -0.224871        -6.1190
 163   2.0000      -0.224221        -6.1014
 164   2.0000      -0.223010        -6.0684
 165   2.0000      -0.222510        -6.0548
 166   2.0000      -0.220177        -5.9913
 167   2.0000      -0.219704        -5.9784
 168   2.0000      -0.218575        -5.9477
 169   2.0000      -0.218015        -5.9325
 170   2.0000      -0.212086        -5.7711
 171   2.0000      -0.194671        -5.2973
 172   2.0000      -0.184431        -5.0186
 173   0.0000       0.096717         2.6318
 174   0.0000       0.110435         3.0051
 175   0.0000       0.118115         3.2141
 176   0.0000       0.120303         3.2736
 177   0.0000       0.123784         3.3683

MULLIKEN ATOMIC CHARGES
-----------------------
   0 C :   -0.251558
   1 N :   -0.293013
   2 H :    0.135300
   3 H :    0.140682
   4 H :    0.139051
   5 H :    0.274524
   6 H :    0.268167
   7 H :    0.282925
   8 Pb:    0.995111
   9 Cl:   -0.602639
  10 Cl:   -0.718479
  11 Cl:   -0.652324
  12 Cl:   -0.706342
  13 Cl:   -0.675709
  14 Cl:   -0.598052
  15 N :   -0.274519
  16 C :   -0.239865
  17 H :    0.276800
  18 H :    0.298995
  19 H :    0.145999
  20 H :    0.135089
  21 H :    0.121887
  22 H :    0.292382
  23 Cl:   -0.664477
  24 Cl:   -0.700161
  25 Pb:    0.995230
  26 N :   -0.277217
  27 C :   -0.236039
  28 H :    0.295517
  29 H :    0.295759
  30 H :    0.118992
  31 H :    0.150097
  32 H :    0.138732
  33 H :    0.273917
  34 Cl:   -0.609028
  35 H :    0.138984
  36 H :    0.266651
  37 H :    0.141625
  38 C :   -0.250655
  39 N :   -0.290069
  40 Cl:   -0.652982
  41 H :    0.274774
  42 H :    0.281837
  43 H :    0.142656
  44 Cl:   -0.705105
  45 H :    0.135226
  46 H :    0.271303
  47 C :   -0.244152
  48 H :    0.135052
  49 N :   -0.281780
  50 H :    0.260374
  51 H :    0.136782
  52 H :    0.273793
  53 H :    0.137837
  54 H :    0.277569
  55 C :   -0.246429
  56 H :    0.138019
  57 N :   -0.286986
  58 H :    0.271138
  59 H :    0.137211
  60 H :    0.261594
Sum of atomic charges:   -1.0000000

LOEWDIN ATOMIC CHARGES
----------------------
   0 C :   -0.299060
   1 N :    0.060539
   2 H :    0.117180
   3 H :    0.119038
   4 H :    0.117611
   5 H :    0.144301
   6 H :    0.151353
   7 H :    0.143078
   8 Pb:    0.073389
   9 Cl:   -0.320378
  10 Cl:   -0.518543
  11 Cl:   -0.409512
  12 Cl:   -0.532634
  13 Cl:   -0.454967
  14 Cl:   -0.159641
  15 N :    0.090401
  16 C :   -0.303976
  17 H :    0.144013
  18 H :    0.156852
  19 H :    0.116303
  20 H :    0.111047
  21 H :    0.112392
  22 H :    0.173278
  23 Cl:   -0.435527
  24 Cl:   -0.530904
  25 Pb:    0.104021
  26 N :    0.090444
  27 C :   -0.302784
  28 H :    0.154356
  29 H :    0.171422
  30 H :    0.111094
  31 H :    0.117926
  32 H :    0.111809
  33 H :    0.151383
  34 Cl:   -0.352011
  35 H :    0.118594
  36 H :    0.155876
  37 H :    0.118598
  38 C :   -0.296005
  39 N :    0.065903
  40 Cl:   -0.416821
  41 H :    0.149720
  42 H :    0.150444
  43 H :    0.119684
  44 Cl:   -0.487894
  45 H :    0.118342
  46 H :    0.141808
  47 C :   -0.299844
  48 H :    0.116695
  49 N :    0.061904
  50 H :    0.143097
  51 H :    0.117460
  52 H :    0.148168
  53 H :    0.117808
  54 H :    0.147271
  55 C :   -0.298990
  56 H :    0.117480
  57 N :    0.061302
  58 H :    0.140984
  59 H :    0.118857
  60 H :    0.146264

  Mayer bond orders larger than 0.1
B(  0-C ,  1-N ) :   0.9355 B(  0-C ,  2-H ) :   0.9752 B(  0-C ,  3-H ) :   0.9751
B(  0-C ,  4-H ) :   0.9747 B(  1-N ,  5-H ) :   0.7810 B(  1-N ,  6-H ) :   0.8110
B(  1-N ,  7-H ) :   0.7963 B(  5-H , 11-Cl) :   0.2294 B(  6-H ,  9-Cl) :   0.1891
B(  7-H , 10-Cl) :   0.1913 B(  8-Pb,  9-Cl) :   0.4879 B(  8-Pb, 10-Cl) :   0.1729
B(  8-Pb, 11-Cl) :   0.3606 B(  8-Pb, 12-Cl) :   0.1313 B(  8-Pb, 13-Cl) :   0.2400
B(  8-Pb, 14-Cl) :   0.3258 B( 10-Cl, 52-H ) :   0.1651 B( 12-Cl, 17-H ) :   0.2089
B( 12-Cl, 46-H ) :   0.2329 B( 13-Cl, 18-H ) :   0.1361 B( 13-Cl, 50-H ) :   0.2399
B( 14-Cl, 25-Pb) :   0.2614 B( 15-N , 16-C ) :   0.9320 B( 15-N , 17-H ) :   0.7939
B( 15-N , 18-H ) :   0.8226 B( 15-N , 22-H ) :   0.8714 B( 16-C , 19-H ) :   0.9703
B( 16-C , 20-H ) :   0.9671 B( 16-C , 21-H ) :   0.9709 B( 23-Cl, 25-Pb) :   0.2660
B( 23-Cl, 28-H ) :   0.1419 B( 23-Cl, 60-H ) :   0.2262 B( 24-Cl, 25-Pb) :   0.1471
B( 24-Cl, 33-H ) :   0.1919 B( 24-Cl, 58-H ) :   0.2486 B( 25-Pb, 34-Cl) :   0.4774
B( 25-Pb, 40-Cl) :   0.3488 B( 25-Pb, 44-Cl) :   0.2184 B( 26-N , 27-C ) :   0.9267
B( 26-N , 28-H ) :   0.8209 B( 26-N , 29-H ) :   0.8647 B( 26-N , 33-H ) :   0.8087
B( 27-C , 30-H ) :   0.9706 B( 27-C , 31-H ) :   0.9695 B( 27-C , 32-H ) :   0.9658
B( 34-Cl, 36-H ) :   0.1935 B( 35-H , 38-C ) :   0.9746 B( 36-H , 39-N ) :   0.8117
B( 37-H , 38-C ) :   0.9739 B( 38-C , 39-N ) :   0.9314 B( 38-C , 43-H ) :   0.9744
B( 39-N , 41-H ) :   0.7825 B( 39-N , 42-H ) :   0.8096 B( 40-Cl, 41-H ) :   0.2281
B( 42-H , 44-Cl) :   0.1730 B( 44-Cl, 54-H ) :   0.1589 B( 45-H , 47-C ) :   0.9749
B( 46-H , 49-N ) :   0.7799 B( 47-C , 48-H ) :   0.9758 B( 47-C , 49-N ) :   0.9401
B( 47-C , 51-H ) :   0.9749 B( 49-N , 50-H ) :   0.7865 B( 49-N , 52-H ) :   0.8194
B( 53-H , 55-C ) :   0.9756 B( 54-H , 57-N ) :   0.8211 B( 55-C , 56-H ) :   0.9747
B( 55-C , 57-N ) :   0.9362 B( 55-C , 59-H ) :   0.9748 B( 57-N , 58-H ) :   0.7711
B( 57-N , 60-H ) :   0.7936

MP2 TOTAL ENERGY:    -6025.868487050 Eh
Dispersion correction           -0.080498615
FINAL SINGLE POINT ENERGY     -6025.948985665079

DIPOLE MOMENT
-------------
                                X             Y             Z
Electronic contribution:    -28.12473      -0.87084      37.03750
Nuclear contribution   :     29.49541       0.06876     -38.13797
                        -----------------------------------------
Total Dipole Moment    :      1.37068      -0.80208      -1.10047
                        -----------------------------------------
Magnitude (a.u.)       :      1.93213
Magnitude (Debye)      :      4.91109

                             ****ORCA TERMINATED NORMALLY****
TOTAL RUN TIME: 0 days 1 hours 10 minutes 42 seconds 258 msec
