                         Program Version 3.0.3 - RELEASE   -
|  1> ! RIJCOSX RI-B2PLYP D3BJ def2-TZVP ECP{def2-TZVP} TIGHTSCF Grid5 FinalGrid6 SlowConv MORead
|  2> %method
|  3>  RunTyp Gradient
|  4>  end
|  5> %maxcore 1000
|  6> %moinp "previous.gbw"
|  7> *xyz 0 1
|  8> C -1.021300 -0.518706 -0.367842
|  9> N -0.390338 -0.330711 -1.737710
| 10> H -0.564090 -1.270090 -2.322690
| 11> H 0.603945 -0.185407 -1.720580
| 12> H -0.738331 0.372459 -2.242760
| 13> H -0.780365 -1.511430 0.041620
| 14> H -2.136150 -0.563044 -0.484982
| 15> H -0.621884 0.292944 0.263429
| 16> Pb -3.121080 -2.579610 -2.429220
| 17> Cl -0.679117 -3.251140 -2.416770
| 18> Cl -3.482440 -0.096927 -2.512930
| 19> Cl -4.286990 -3.571960 -0.547716
| 20> *
| 21>
| 22>                          ****END OF INPUT****

CARTESIAN COORDINATES (ANGSTROEM)
---------------------------------
  C     -1.021300   -0.518706   -0.367842
  N     -0.390338   -0.330711   -1.737710
  H     -0.564090   -1.270090   -2.322690
  H      0.603945   -0.185407   -1.720580
  H     -0.738331    0.372459   -2.242760
  H     -0.780365   -1.511430    0.041620
  H     -2.136150   -0.563044   -0.484982
  H     -0.621884    0.292944    0.263429
  Pb    -3.121080   -2.579610   -2.429220
  Cl    -0.679117   -3.251140   -2.416770
  Cl    -3.482440   -0.096927   -2.512930
  Cl    -4.286990   -3.571960   -0.547716

 Total Charge           Charge          ....    0
 Multiplicity           Mult            ....    1
 Number of Electrons    NEL             ....   92
 Basis Dimension        Dim             ....  259

ORBITAL ENERGIES
----------------

  NO   OCC          E(Eh)            E(eV)
   0   2.0000    -102.865211     -2799.1047
   1   2.0000    -102.847540     -2798.6239
   2   2.0000    -102.837356     -2798.3467
   3   2.0000     -14.990033      -407.8995
   4   2.0000     -10.719448      -291.6910
   5   2.0000      -9.873740      -268.6781
   6   2.0000      -9.855763      -268.1889
   7   2.0000      -9.845227      -267.9023
   8   2.0000      -7.510273      -204.3649
   9   2.0000      -7.509452      -204.3426
  10   2.0000      -7.508656      -204.3209
  11   2.0000      -7.492629      -203.8848
  12   2.0000      -7.491085      -203.8428
  13   2.0000      -7.490869      -203.8369
  14   2.0000      -7.482368      -203.6056
  15   2.0000      -7.480333      -203.5502
  16   2.0000      -7.480172      -203.5458
  17   2.0000      -5.781576      -157.3247
  18   2.0000      -3.554462       -96.7218
  19   2.0000      -3.551802       -96.6495
  20   2.0000      -3.550648       -96.6180
  21   2.0000      -1.173268       -31.9262
  22   2.0000      -0.959340       -26.1050
  23   2.0000      -0.957447       -26.0534
  24   2.0000      -0.949761       -25.8443
  25   2.0000      -0.943760       -25.6810
  26   2.0000      -0.941071       -25.6078
  27   2.0000      -0.891392       -24.2560
  28   2.0000      -0.872621       -23.7452
  29   2.0000      -0.864683       -23.5292
  30   2.0000      -0.849172       -23.1071
  31   2.0000      -0.715037       -19.4571
  32   2.0000      -0.688443       -18.7335
  33   2.0000      -0.606606       -16.5066
  34   2.0000      -0.552397       -15.0315
  35   2.0000      -0.536234       -14.5917
  36   2.0000      -0.514816       -14.0089
  37   2.0000      -0.397080       -10.8051
  38   2.0000      -0.387911       -10.5556
  39   2.0000      -0.372965       -10.1489
  40   2.0000      -0.362849        -9.8736
  41   2.0000      -0.350654        -9.5418
  42   2.0000      -0.348705        -9.4887
  43   2.0000      -0.335639        -9.1332
  44   2.0000      -0.331085        -9.0093
  45   2.0000      -0.259105        -7.0506
  46   0.0000      -0.011761        -0.3200
  47   0.0000       0.009990         0.2718
  48   0.0000       0.051980         1.4144
  49   0.0000       0.053286         1.4500
  50   0.0000       0.071046         1.9333

Dispersion correction            ...

MULLIKEN ATOMIC CHARGES
-----------------------
   0 C :   -0.312659
   1 N :   -0.289546
   2 H :    0.294754
   3 H :    0.275136
   4 H :    0.260537
   5 H :    0.197306
   6 H :    0.209644
   7 H :    0.155614
   8 Pb:    0.732215
   9 Cl:   -0.507893
  10 Cl:   -0.536362
  11 Cl:   -0.478746
Sum of atomic charges:   -0.0000000

LOEWDIN ATOMIC CHARGES
----------------------
   0 C :   -0.295900
   1 N :    0.109538
   2 H :    0.180399
   3 H :    0.187123
   4 H :    0.138793
   5 H :    0.134430
   6 H :    0.135381
   7 H :    0.125596
   8 Pb:   -0.194285
   9 Cl:   -0.177697
  10 Cl:   -0.209404
  11 Cl:   -0.133973

  Mayer bond orders larger than 0.1
B(  0-C ,  1-N ) :   0.8488 B(  0-C ,  5-H ) :   0.9378 B(  0-C ,  6-H ) :   0.9161
B(  0-C ,  7-H ) :   0.9435 B(  1-N ,  2-H ) :   0.7176 B(  1-N ,  3-H ) :   0.8894
B(  1-N ,  4-H ) :   0.8911 B(  2-H ,  9-Cl) :   0.2479 B(  8-Pb,  9-Cl) :   0.5173
B(  8-Pb, 10-Cl) :   0.6272 B(  8-Pb, 11-Cl) :   0.8281

MP2 TOTAL ENERGY:    -1669.568348993 Eh
Dispersion correction           -0.014167102
FINAL SINGLE POINT ENERGY     -1669.582516095100

DIPOLE MOMENT
-------------
                                X             Y             Z
Electronic contribution:    -58.24963     -51.86242     -52.22434
Nuclear contribution   :     61.11145      53.96154      52.27809
                        -----------------------------------------
Total Dipole Moment    :      2.86182       2.09913       0.05375
                        -----------------------------------------
Magnitude (a.u.)       :      3.54954
Magnitude (Debye)      :      9.02222

                             ****ORCA TERMINATED NORMALLY****
TOTAL RUN TIME: 0 days 0 hours 13 minutes 21 seconds 74 msec
