                         Program Version 3.0.3 - RELEASE   -
|  1> ! PW6B95 def2-TZVP GCP(DFT/TZ) ECP{def2-TZVP} Grid7 MORead
|  2> %pal nprocs 2 end
|  3> %method
|  4>  RunTyp Gradient
|  5>  end
|  6> %maxcore 2000
|  7> %moinp "previous.gbw"
|  8> *xyz -1 1
|  9> Pb 0.163902 0.936354 0.677960
| 10> Cl 1.925548 -1.076973 -0.013798
| 11> Cl 1.641617 2.642290 -0.298618
| 12> Cl 1.208371 0.959203 3.169796
| 13> *
| 14>
| 15>                          ****END OF INPUT****

CARTESIAN COORDINATES (ANGSTROEM)
---------------------------------
  Pb     0.163902    0.936354    0.677960
  Cl     1.925548   -1.076973   -0.013798
  Cl     1.641617    2.642290   -0.298618
  Cl     1.208371    0.959203    3.169796

 Total Charge           Charge          ....   -1
 Multiplicity           Mult            ....    1
 Number of Electrons    NEL             ....   74
 Basis Dimension        Dim             ....  161

ORBITAL ENERGIES
----------------

  NO   OCC          E(Eh)            E(eV)
   0   2.0000    -101.733175     -2768.3004
   1   2.0000    -101.706412     -2767.5722
   2   2.0000    -101.698418     -2767.3547
   3   2.0000      -9.374352      -255.0891
   4   2.0000      -9.346144      -254.3215
   5   2.0000      -9.337932      -254.0980
   6   2.0000      -7.104122      -193.3130
   7   2.0000      -7.101153      -193.2322
   8   2.0000      -7.101075      -193.2301
   9   2.0000      -7.076003      -192.5478
  10   2.0000      -7.073077      -192.4682
  11   2.0000      -7.073044      -192.4673
  12   2.0000      -7.067841      -192.3257
  13   2.0000      -7.064885      -192.2453
  14   2.0000      -7.064826      -192.2437
  15   2.0000      -5.425085      -147.6241
  16   2.0000      -3.249381       -88.4201
  17   2.0000      -3.248449       -88.3948
  18   2.0000      -3.247208       -88.3610
  19   2.0000      -0.748703       -20.3732
  20   2.0000      -0.741667       -20.1818
  21   2.0000      -0.738796       -20.1036
  22   2.0000      -0.738394       -20.0927
  23   2.0000      -0.737347       -20.0642
  24   2.0000      -0.644452       -17.5364
  25   2.0000      -0.610736       -16.6190
  26   2.0000      -0.599922       -16.3247
  27   2.0000      -0.364129        -9.9084
  28   2.0000      -0.191506        -5.2112
  29   2.0000      -0.180193        -4.9033
  30   2.0000      -0.176441        -4.8012
  31   2.0000      -0.152362        -4.1460
  32   2.0000      -0.144667        -3.9366
  33   2.0000      -0.136514        -3.7147
  34   2.0000      -0.127291        -3.4638
  35   2.0000      -0.123575        -3.3626
  36   2.0000      -0.122322        -3.3285
  37   0.0000       0.099357         2.7036
  38   0.0000       0.106015         2.8848
  39   0.0000       0.122367         3.3298
  40   0.0000       0.227794         6.1986
  41   0.0000       0.232144         6.3170

MULLIKEN ATOMIC CHARGES
-----------------------
   0 Pb:    0.719044
   1 Cl:   -0.605151
   2 Cl:   -0.522948
   3 Cl:   -0.590946
Sum of atomic charges:   -1.0000000

LOEWDIN ATOMIC CHARGES
----------------------
   0 Pb:   -0.073159
   1 Cl:   -0.388505
   2 Cl:   -0.185777
   3 Cl:   -0.352559

  Mayer bond orders larger than 0.1
B(  0-Pb,  1-Cl) :   0.6656 B(  0-Pb,  2-Cl) :   0.7970 B(  0-Pb,  3-Cl) :   0.6883

FINAL SINGLE POINT ENERGY     -1574.923661307102

DIPOLE MOMENT
-------------
                                X             Y             Z
Electronic contribution:    -73.60932       5.33658     -14.35982
Nuclear contribution   :     70.80241      -4.70286      13.61067
                        -----------------------------------------
Total Dipole Moment    :     -2.80692       0.63372      -0.74915
                        -----------------------------------------
Magnitude (a.u.)       :      2.97348
Magnitude (Debye)      :      7.55800

                             ****ORCA TERMINATED NORMALLY****
TOTAL RUN TIME: 0 days 0 hours 8 minutes 41 seconds 994 msec
