                         Program Version 3.0.3 - RELEASE   -
|  1> ! RIJCOSX RI-B2PLYP D3BJ def2-TZVP ECP{def2-TZVP} TIGHTSCF Grid5 FinalGrid6 SlowConv MORead
|  2> %method
|  3>  RunTyp Gradient
|  4>  end
|  5> %maxcore 1000
|  6> %moinp "previous.gbw"
|  7> *xyz 0 1
|  8> C 2.905719 3.576013 2.873338
|  9> N 2.134625 2.614408 2.046990
| 10> H 3.548796 3.021424 3.560517
| 11> H 2.209179 4.197444 3.440826
| 12> H 3.515705 4.204875 2.220874
| 13> H 1.516852 1.975028 2.601630
| 14> H 2.717740 1.973704 1.464858
| 15> H 1.486857 3.059076 1.361735
| 16> Pb 0.505280 0.131547 0.209487
| 17> Cl 0.895157 0.268387 0.089874
| 18> Cl 0.212619 2.735046 -0.108798
| 19> Cl 0.890526 0.320768 2.851419
| 20> *
| 21>
| 22>                          ****END OF INPUT****

CARTESIAN COORDINATES (ANGSTROEM)
---------------------------------
  C      2.905719    3.576013    2.873338
  N      2.134625    2.614408    2.046990
  H      3.548796    3.021424    3.560517
  H      2.209179    4.197444    3.440826
  H      3.515705    4.204875    2.220874
  H      1.516852    1.975028    2.601630
  H      2.717740    1.973704    1.464858
  H      1.486857    3.059076    1.361735
  Pb     0.505280    0.131547    0.209487
  Cl     0.895157    0.268387    0.089874
  Cl     0.212619    2.735046   -0.108798
  Cl     0.890526    0.320768    2.851419

 Total Charge           Charge          ....    0
 Multiplicity           Mult            ....    1
 Number of Electrons    NEL             ....   92
 Basis Dimension        Dim             ....  259

ORBITAL ENERGIES
----------------

  NO   OCC          E(Eh)            E(eV)
   0   2.0000    -108.844862     -2961.8193
   1   2.0000    -102.854752     -2798.8201
   2   2.0000    -102.835346     -2798.2920
   3   2.0000     -15.277138      -415.7121
   4   2.0000     -14.952932      -406.8900
   5   2.0000     -13.480611      -366.8261
   6   2.0000     -13.471737      -366.5846
   7   2.0000     -11.401708      -310.2562
   8   2.0000     -10.709459      -291.4192
   9   2.0000      -9.864912      -268.4379
  10   2.0000      -9.845941      -267.9217
  11   2.0000      -7.501148      -204.1166
  12   2.0000      -7.500728      -204.1052
  13   2.0000      -7.500032      -204.0863
  14   2.0000      -7.482133      -203.5992
  15   2.0000      -7.481784      -203.5897
  16   2.0000      -7.481068      -203.5702
  17   2.0000      -6.503698      -176.9746
  18   2.0000      -5.080367      -138.2438
  19   2.0000      -5.069310      -137.9429
  20   2.0000      -3.675856      -100.0251
  21   2.0000      -2.518454       -68.5306
  22   2.0000      -2.514133       -68.4130
  23   2.0000      -1.998834       -54.3910
  24   2.0000      -1.989671       -54.1417
  25   2.0000      -1.482853       -40.3505
  26   2.0000      -1.140471       -31.0338
  27   2.0000      -0.916418       -24.9370
  28   2.0000      -0.899471       -24.4758
  29   2.0000      -0.857531       -23.3346
  30   2.0000      -0.807468       -21.9723
  31   2.0000      -0.795130       -21.6366
  32   2.0000      -0.721256       -19.6264
  33   2.0000      -0.668618       -18.1940
  34   2.0000      -0.665863       -18.1190
  35   2.0000      -0.601561       -16.3693
  36   2.0000      -0.523636       -14.2489
  37   2.0000      -0.521710       -14.1965
  38   2.0000      -0.496479       -13.5099
  39   2.0000      -0.381253       -10.3744
  40   2.0000      -0.370076       -10.0703
  41   2.0000      -0.365033        -9.9331
  42   2.0000      -0.354570        -9.6483
  43   2.0000      -0.351091        -9.5537
  44   2.0000      -0.349244        -9.5034
  45   2.0000      -0.107929        -2.9369
  46   0.0000       0.006152         0.1674
  47   0.0000       0.013999         0.3809
  48   0.0000       0.037135         1.0105
  49   0.0000       0.050848         1.3836
  50   0.0000       0.073588         2.0024

Dispersion correction            ...

MULLIKEN ATOMIC CHARGES
-----------------------
   0 C :   -0.273190
   1 N :   -0.283130
   2 H :    0.159090
   3 H :    0.163965
   4 H :    0.156671
   5 H :    0.290531
   6 H :    0.150558
   7 H :    0.288987
   8 Pb:   -2.100373
   9 Cl:    2.655704
  10 Cl:   -0.627951
  11 Cl:   -0.580861
Sum of atomic charges:    0.0000000

LOEWDIN ATOMIC CHARGES
----------------------
   0 C :   -0.296669
   1 N :    0.043820
   2 H :    0.126216
   3 H :    0.129112
   4 H :    0.124691
   5 H :    0.095209
   6 H :    0.116193
   7 H :    0.132842
   8 Pb:    4.123842
   9 Cl:   -4.053949
  10 Cl:   -0.305989
  11 Cl:   -0.235316

  Mayer bond orders larger than 0.1
B(  0-C ,  1-N ) :   0.8891 B(  0-C ,  2-H ) :   0.9524 B(  0-C ,  3-H ) :   0.9537
B(  0-C ,  4-H ) :   0.9529 B(  1-N ,  5-H ) :   0.7237 B(  1-N ,  6-H ) :   0.8241
B(  1-N ,  7-H ) :   0.7782 B(  1-N ,  8-Pb) :  -0.1191 B(  5-H , 11-Cl) :   0.2245
B(  6-H ,  8-Pb) :   0.3752 B(  6-H ,  9-Cl) :  -0.1197 B(  7-H , 10-Cl) :   0.1608
B(  8-Pb,  9-Cl) :  -5.1302 B(  8-Pb, 10-Cl) :   0.4968 B(  8-Pb, 11-Cl) :   0.5393

MP2 TOTAL ENERGY:    -1557.678230570 Eh
Dispersion correction           -0.015100116
FINAL SINGLE POINT ENERGY     -1557.693330685644

DIPOLE MOMENT
-------------
                                X             Y             Z
Electronic contribution:    -44.58193     -97.96183     -74.39901
Nuclear contribution   :     46.22443      99.85676      75.48845
                        -----------------------------------------
Total Dipole Moment    :      1.64249       1.89493       1.08944
                        -----------------------------------------
Magnitude (a.u.)       :      2.73412
Magnitude (Debye)      :      6.94959

                             ****ORCA TERMINATED NORMALLY****
TOTAL RUN TIME: 0 days 0 hours 41 minutes 45 seconds 670 msec
