                         Program Version 3.0.3 - RELEASE   -
|  1> ! RIJCOSX RI-B2PLYP D3BJ def2-TZVP ECP{def2-TZVP} TIGHTSCF Grid5 FinalGrid6 MORead
|  2> %method
|  3>  RunTyp Gradient
|  4>  end
|  5> %maxcore 1000
|  6> %moinp "previous.gbw"
|  7> *xyz -2 1
|  8> C 2.821971 3.493173 2.716929
|  9> N 2.031893 2.485380 2.005967
| 10> H 3.493737 3.003675 3.431461
| 11> H 2.156449 4.174155 3.259759
| 12> H 3.419280 4.070497 2.001994
| 13> H 1.424368 1.881241 2.639320
| 14> H 2.617127 1.787701 1.451958
| 15> H 1.353302 2.890520 1.291746
| 16> Pb 0.083846 -0.020590 0.203829
| 17> Cl 3.143850 0.268085 0.275613
| 18> Cl -0.027562 3.047476 -0.120885
| 19> Cl 0.133282 0.490303 3.256386
| 20> Cl -3.003176 -0.305225 0.156770
| 21> Cl 0.015600 -0.536861 -2.834285
| 22> Cl 0.182442 -3.094847 0.547449
| 23> N -1.884966 -2.527607 -1.578982
| 24> C -2.664881 -3.549172 -2.281400
| 25> H -2.474954 -1.829497 -1.031708
| 26> H -1.279571 -1.925402 -2.215561
| 27> H -3.259633 -4.123288 -1.561779
| 28> H -1.991792 -4.230944 -2.813775
| 29> H -3.338231 -3.073756 -3.003955
| 30> H -1.204879 -2.923566 -0.859634
| 31> *
| 32>
| 33>                          ****END OF INPUT****

CARTESIAN COORDINATES (ANGSTROEM)
---------------------------------
  C      2.821971    3.493173    2.716929
  N      2.031893    2.485380    2.005967
  H      3.493737    3.003675    3.431461
  H      2.156449    4.174155    3.259759
  H      3.419280    4.070497    2.001994
  H      1.424368    1.881241    2.639320
  H      2.617127    1.787701    1.451958
  H      1.353302    2.890520    1.291746
  Pb     0.083846   -0.020590    0.203829
  Cl     3.143850    0.268085    0.275613
  Cl    -0.027562    3.047476   -0.120885
  Cl     0.133282    0.490303    3.256386
  Cl    -3.003176   -0.305225    0.156770
  Cl     0.015600   -0.536861   -2.834285
  Cl     0.182442   -3.094847    0.547449
  N     -1.884966   -2.527607   -1.578982
  C     -2.664881   -3.549172   -2.281400
  H     -2.474954   -1.829497   -1.031708
  H     -1.279571   -1.925402   -2.215561
  H     -3.259633   -4.123288   -1.561779
  H     -1.991792   -4.230944   -2.813775
  H     -3.338231   -3.073756   -3.003955
  H     -1.204879   -2.923566   -0.859634

 Total Charge           Charge          ....   -2
 Multiplicity           Mult            ....    1
 Number of Electrons    NEL             ....  164
 Basis Dimension        Dim             ....  468

ORBITAL ENERGIES
----------------

  NO   OCC          E(Eh)            E(eV)
   0   2.0000    -102.582595     -2791.4143
   1   2.0000    -102.581995     -2791.3980
   2   2.0000    -102.581958     -2791.3970
   3   2.0000    -102.581483     -2791.3841
   4   2.0000    -102.580608     -2791.3603
   5   2.0000    -102.580060     -2791.3453
   6   2.0000     -14.691584      -399.7783
   7   2.0000     -14.691067      -399.7643
   8   2.0000     -10.490806      -285.4694
   9   2.0000     -10.490706      -285.4666
  10   2.0000      -9.589214      -260.9358
  11   2.0000      -9.588595      -260.9189
  12   2.0000      -9.588593      -260.9189
  13   2.0000      -9.588094      -260.9053
  14   2.0000      -9.587189      -260.8807
  15   2.0000      -9.586610      -260.8649
  16   2.0000      -7.225621      -196.6192
  17   2.0000      -7.225399      -196.6131
  18   2.0000      -7.225004      -196.6024
  19   2.0000      -7.224999      -196.6022
  20   2.0000      -7.224786      -196.5964
  21   2.0000      -7.224777      -196.5962
  22   2.0000      -7.224694      -196.5939
  23   2.0000      -7.224490      -196.5884
  24   2.0000      -7.224299      -196.5832
  25   2.0000      -7.224082      -196.5773
  26   2.0000      -7.224073      -196.5770
  27   2.0000      -7.223592      -196.5639
  28   2.0000      -7.223577      -196.5635
  29   2.0000      -7.223382      -196.5582
  30   2.0000      -7.223009      -196.5481
  31   2.0000      -7.222808      -196.5426
  32   2.0000      -7.222681      -196.5391
  33   2.0000      -7.222107      -196.5235
  34   2.0000      -5.563927      -151.4022
  35   2.0000      -3.334473       -90.7356
  36   2.0000      -3.333853       -90.7188
  37   2.0000      -3.333786       -90.7169
  38   2.0000      -0.879793       -23.9404
  39   2.0000      -0.879565       -23.9342
  40   2.0000      -0.722693       -19.6655
  41   2.0000      -0.722517       -19.6607
  42   2.0000      -0.721596       -19.6356
  43   2.0000      -0.720255       -19.5991
  44   2.0000      -0.720169       -19.5968
  45   2.0000      -0.633805       -17.2467
  46   2.0000      -0.633365       -17.2347
  47   2.0000      -0.601075       -16.3561
  48   2.0000      -0.600652       -16.3446
  49   2.0000      -0.598295       -16.2804
  50   2.0000      -0.597764       -16.2660
  51   2.0000      -0.596238       -16.2245
  52   2.0000      -0.593347       -16.1458
  53   2.0000      -0.410626       -11.1737
  54   2.0000      -0.410408       -11.1678
  55   2.0000      -0.410354       -11.1663
  56   2.0000      -0.410339       -11.1659
  57   2.0000      -0.362837        -9.8733
  58   2.0000      -0.362567        -9.8660
  59   2.0000      -0.291621        -7.9354
  60   2.0000      -0.290387        -7.9018
  61   2.0000      -0.290302        -7.8995
  62   2.0000      -0.290266        -7.8985
  63   2.0000      -0.290227        -7.8975
  64   2.0000      -0.114472        -3.1149
  65   2.0000      -0.109049        -2.9674
  66   2.0000      -0.108951        -2.9647
  67   2.0000      -0.097531        -2.6539
  68   2.0000      -0.089463        -2.4344
  69   2.0000      -0.086393        -2.3509
  70   2.0000      -0.086279        -2.3478
  71   2.0000      -0.082463        -2.2439
  72   2.0000      -0.082144        -2.2352
  73   2.0000      -0.082015        -2.2318
  74   2.0000      -0.081647        -2.2217
  75   2.0000      -0.078957        -2.1485
  76   2.0000      -0.078611        -2.1391
  77   2.0000      -0.078145        -2.1264
  78   2.0000      -0.077837        -2.1180
  79   2.0000      -0.075527        -2.0552
  80   2.0000      -0.071445        -1.9441
  81   2.0000      -0.045525        -1.2388
  82   0.0000       0.241207         6.5636
  83   0.0000       0.241383         6.5684
  84   0.0000       0.256778         6.9873
  85   0.0000       0.258970         7.0469
  86   0.0000       0.259377         7.0580

Dispersion correction            ...

MULLIKEN ATOMIC CHARGES
-----------------------
   0 C :   -0.269736
   1 N :   -0.289162
   2 H :    0.118694
   3 H :    0.119136
   4 H :    0.119582
   5 H :    0.259438
   6 H :    0.260494
   7 H :    0.261973
   8 Pb:    1.030512
   9 Cl:   -0.696146
  10 Cl:   -0.697851
  11 Cl:   -0.699488
  12 Cl:   -0.700938
  13 Cl:   -0.698127
  14 Cl:   -0.699381
  15 N :   -0.288208
  16 C :   -0.269701
  17 H :    0.258733
  18 H :    0.259541
  19 H :    0.120235
  20 H :    0.119464
  21 H :    0.118183
  22 H :    0.262752
Sum of atomic charges:   -2.0000000

LOEWDIN ATOMIC CHARGES
----------------------
   0 C :   -0.339464
   1 N :    0.033283
   2 H :    0.112049
   3 H :    0.112144
   4 H :    0.112279
   5 H :    0.133728
   6 H :    0.133923
   7 H :    0.132020
   8 Pb:    0.168875
   9 Cl:   -0.499836
  10 Cl:   -0.502138
  11 Cl:   -0.508181
  12 Cl:   -0.512065
  13 Cl:   -0.504109
  14 Cl:   -0.505694
  15 N :    0.033970
  16 C :   -0.339152
  17 H :    0.134802
  18 H :    0.134002
  19 H :    0.112563
  20 H :    0.112320
  21 H :    0.111829
  22 H :    0.132855

  Mayer bond orders larger than 0.1
B(  0-C ,  1-N ) :   0.9401 B(  0-C ,  2-H ) :   0.9607 B(  0-C ,  3-H ) :   0.9602
B(  0-C ,  4-H ) :   0.9601 B(  1-N ,  5-H ) :   0.7470 B(  1-N ,  6-H ) :   0.7473
B(  1-N ,  7-H ) :   0.7453 B(  5-H , 11-Cl) :   0.2652 B(  6-H ,  9-Cl) :   0.2635
B(  7-H , 10-Cl) :   0.2649 B(  8-Pb,  9-Cl) :   0.2757 B(  8-Pb, 10-Cl) :   0.2705
B(  8-Pb, 11-Cl) :   0.2686 B(  8-Pb, 12-Cl) :   0.2671 B(  8-Pb, 13-Cl) :   0.2734
B(  8-Pb, 14-Cl) :   0.2672 B( 12-Cl, 17-H ) :   0.2648 B( 13-Cl, 18-H ) :   0.2623
B( 14-Cl, 22-H ) :   0.2659 B( 15-N , 16-C ) :   0.9404 B( 15-N , 17-H ) :   0.7482
B( 15-N , 18-H ) :   0.7487 B( 15-N , 22-H ) :   0.7445 B( 16-C , 19-H ) :   0.9600
B( 16-C , 20-H ) :   0.9601 B( 16-C , 21-H ) :   0.9606

MP2 TOTAL ENERGY:    -3146.564403787 Eh
Dispersion correction           -0.027742591
FINAL SINGLE POINT ENERGY     -3146.592146378850

DIPOLE MOMENT
-------------
                                X             Y             Z
Electronic contribution:      0.87727       0.20455      -0.97442
Nuclear contribution   :     -0.81329      -0.19768       0.93241
                        -----------------------------------------
Total Dipole Moment    :      0.06398       0.00687      -0.04200
                        -----------------------------------------
Magnitude (a.u.)       :      0.07684
Magnitude (Debye)      :      0.19532

                             ****ORCA TERMINATED NORMALLY****
TOTAL RUN TIME: 0 days 0 hours 31 minutes 13 seconds 939 msec
