                         Program Version 3.0.3 - RELEASE   -
|  1> ! RIJCOSX RI-B2PLYP D3BJ def2-TZVP ECP{def2-TZVP} TIGHTSCF Grid5 FinalGrid6 SlowConv MORead
|  2> %method
|  3>  RunTyp Gradient
|  4>  end
|  5> %maxcore 1000
|  6> %moinp "previous.gbw"
|  7> *xyz 0 1
|  8> C 2.905719 3.576013 2.873338
|  9> N 2.134625 2.614408 2.046990
| 10> H 3.548796 3.021424 3.560517
| 11> H 2.209179 4.197444 3.440826
| 12> H 3.515705 4.204875 2.220874
| 13> H 1.516852 1.975028 2.601630
| 14> H 2.717740 1.973704 1.464858
| 15> H 1.486857 3.059076 1.361735
| 16> Pb 0.414987 0.131547 0.209487
| 17> Cl 3.286120 0.268387 0.089874
| 18> Cl 0.214503 2.735046 -0.108798
| 19> Cl 0.955877 0.320768 2.851419
| 20> *
| 21>
| 22>                          ****END OF INPUT****

CARTESIAN COORDINATES (ANGSTROEM)
---------------------------------
  C      2.905719    3.576013    2.873338
  N      2.134625    2.614408    2.046990
  H      3.548796    3.021424    3.560517
  H      2.209179    4.197444    3.440826
  H      3.515705    4.204875    2.220874
  H      1.516852    1.975028    2.601630
  H      2.717740    1.973704    1.464858
  H      1.486857    3.059076    1.361735
  Pb     0.414987    0.131547    0.209487
  Cl     3.286120    0.268387    0.089874
  Cl     0.214503    2.735046   -0.108798
  Cl     0.955877    0.320768    2.851419

 Total Charge           Charge          ....    0
 Multiplicity           Mult            ....    1
 Number of Electrons    NEL             ....   92
 Basis Dimension        Dim             ....  259

ORBITAL ENERGIES
----------------

  NO   OCC          E(Eh)            E(eV)
   0   2.0000    -102.869544     -2799.2226
   1   2.0000    -102.860942     -2798.9885
   2   2.0000    -102.833208     -2798.2339
   3   2.0000     -14.920383      -406.0043
   4   2.0000     -10.687942      -290.8337
   5   2.0000      -9.877065      -268.7686
   6   2.0000      -9.869408      -268.5602
   7   2.0000      -9.838642      -267.7231
   8   2.0000      -7.514205      -204.4719
   9   2.0000      -7.512405      -204.4229
  10   2.0000      -7.512049      -204.4133
  11   2.0000      -7.506355      -204.2583
  12   2.0000      -7.504915      -204.2191
  13   2.0000      -7.504218      -204.2002
  14   2.0000      -7.475926      -203.4303
  15   2.0000      -7.474220      -203.3839
  16   2.0000      -7.473760      -203.3714
  17   2.0000      -5.833479      -158.7370
  18   2.0000      -3.604703       -98.0890
  19   2.0000      -3.603437       -98.0545
  20   2.0000      -3.602804       -98.0373
  21   2.0000      -1.111739       -30.2519
  22   2.0000      -0.997806       -27.1517
  23   2.0000      -0.994197       -27.0535
  24   2.0000      -0.991391       -26.9771
  25   2.0000      -0.990855       -26.9625
  26   2.0000      -0.989739       -26.9322
  27   2.0000      -0.897626       -24.4256
  28   2.0000      -0.885927       -24.1073
  29   2.0000      -0.842882       -22.9360
  30   2.0000      -0.833242       -22.6737
  31   2.0000      -0.642994       -17.4968
  32   2.0000      -0.639382       -17.3985
  33   2.0000      -0.577708       -15.7202
  34   2.0000      -0.569246       -15.4900
  35   2.0000      -0.503439       -13.6993
  36   2.0000      -0.499865       -13.6020
  37   2.0000      -0.391144       -10.6436
  38   2.0000      -0.375773       -10.2253
  39   2.0000      -0.373639       -10.1672
  40   2.0000      -0.358930        -9.7670
  41   2.0000      -0.353597        -9.6219
  42   2.0000      -0.349399        -9.5076
  43   2.0000      -0.325725        -8.8634
  44   2.0000      -0.323620        -8.8062
  45   2.0000      -0.317199        -8.6314
  46   0.0000      -0.034890        -0.9494
  47   0.0000      -0.020480        -0.5573
  48   0.0000      -0.014973        -0.4074
  49   0.0000       0.056282         1.5315
  50   0.0000       0.107782         2.9329

Dispersion correction            ...

MULLIKEN ATOMIC CHARGES
-----------------------
   0 C :   -0.273999
   1 N :   -0.323402
   2 H :    0.157603
   3 H :    0.150320
   4 H :    0.154055
   5 H :    0.298931
   6 H :    0.276483
   7 H :    0.281442
   8 Pb:    0.825766
   9 Cl:   -0.539942
  10 Cl:   -0.501189
  11 Cl:   -0.506068
Sum of atomic charges:    0.0000000

LOEWDIN ATOMIC CHARGES
----------------------
   0 C :   -0.300391
   1 N :    0.047902
   2 H :    0.125726
   3 H :    0.123077
   4 H :    0.123790
   5 H :    0.098329
   6 H :    0.160090
   7 H :    0.135029
   8 Pb:    0.220205
   9 Cl:   -0.354917
  10 Cl:   -0.193289
  11 Cl:   -0.185552

  Mayer bond orders larger than 0.1
B(  0-C ,  1-N ) :   0.8980 B(  0-C ,  2-H ) :   0.9542 B(  0-C ,  3-H ) :   0.9551
B(  0-C ,  4-H ) :   0.9551 B(  1-N ,  5-H ) :   0.7422 B(  1-N ,  6-H ) :   0.8170
B(  1-N ,  7-H ) :   0.8019 B(  5-H , 11-Cl) :   0.2175 B(  6-H ,  9-Cl) :   0.1607
B(  7-H , 10-Cl) :   0.1416 B(  8-Pb,  9-Cl) :   0.6135 B(  8-Pb, 10-Cl) :   0.6627
B(  8-Pb, 11-Cl) :   0.5943

MP2 TOTAL ENERGY:    -1669.605231780 Eh
Dispersion correction           -0.014096085
FINAL SINGLE POINT ENERGY     -1669.619327865857

DIPOLE MOMENT
-------------
                                X             Y             Z
Electronic contribution:    -87.73237     -99.13379     -74.96101
Nuclear contribution   :     87.01375      99.85676      75.48845
                        -----------------------------------------
Total Dipole Moment    :     -0.71862       0.72297       0.52743
                        -----------------------------------------
Magnitude (a.u.)       :      1.14773
Magnitude (Debye)      :      2.91730

                             ****ORCA TERMINATED NORMALLY****
TOTAL RUN TIME: 0 days 0 hours 14 minutes 38 seconds 85 msec
