                         Program Version 3.0.3 - RELEASE   -
|  1> ! RIJCOSX RI-B2PLYP D3BJ def2-TZVP ECP{def2-TZVP} TIGHTSCF Grid5 FinalGrid6 MORead
|  2> %maxcore 4000
|  3> %moinp "previous.gbw"
|  4> *xyz -1 1
|  5> C 3.321334 3.304660 2.430157
|  6> N 2.356571 2.328752 1.891132
|  7> H 3.929482 2.825089 3.202898
|  8> H 2.779051 4.148026 2.867131
|  9> H 3.970752 3.667461 1.628343
| 10> H 1.712427 1.919960 2.626954
| 11> H 2.798301 1.476145 1.466883
| 12> H 1.726191 2.717573 1.143366
| 13> Pb 0.009140 -0.219752 0.669245
| 14> Cl 2.734153 -0.582374 0.822555
| 15> Cl 0.265200 2.975475 -0.267065
| 16> Cl 0.407141 0.620221 3.549660
| 17> Cl -3.275831 -0.330838 -0.006767
| 18> Cl 0.041574 -1.132269 -2.228006
| 19> Cl -0.562460 -2.699144 1.869431
| 20> N -2.185808 -3.054212 -0.959335
| 21> C -3.018599 -3.892984 -1.852407
| 22> H -2.697680 -2.199715 -0.614166
| 23> H -1.345672 -2.675212 -1.453465
| 24> H -3.863008 -4.284793 -1.282203
| 25> H -2.403708 -4.719219 -2.215644
| 26> H -3.366846 -3.277457 -2.686457
| 27> H -1.855008 -3.591944 -0.148281
| 28> Cl 3.320104 -4.792684 1.555841
| 29> Cl 1.060374 -5.173297 4.807022
| 30> Pb 0.267077 -5.449829 1.506012
| 31> N 2.161285 -2.658962 3.515767
| 32> C 3.006676 -1.740565 4.311813
| 33> H 2.698023 -3.156655 2.770259
| 34> H 1.390718 -2.163400 3.045648
| 35> H 3.799912 -2.319606 4.793333
| 36> H 2.384520 -1.246095 5.060700
| 37> H 3.427402 -0.991699 3.638613
| 38> H 1.731703 -3.427574 4.095222
| 39> Cl 0.323505 -5.388249 -1.332593
| 40> H -2.444419 -8.567556 -2.232135
| 41> H -0.598109 -7.323819 -1.165277
| 42> H -1.004862 -9.612620 -2.073837
| 43> C -1.775778 -9.065444 -1.523604
| 44> N -1.147567 -8.055720 -0.651573
| 45> Cl -2.550299 -5.937382 1.102963
| 46> H -1.842497 -7.478800 -0.094428
| 47> H -0.483324 -8.457680 0.056334
| 48> H -2.352281 -9.766255 -0.913124
| 49> Cl 0.851886 -8.675661 1.617170
| 50> H -3.020852 1.137851 -3.759427
| 51> H -2.443836 0.935457 -1.388789
| 52> C -2.421148 1.915242 -3.276964
| 53> H -3.072919 2.741318 -2.978333
| 54> N -1.760461 1.345922 -2.088558
| 55> H -1.130632 0.530708 -2.323343
| 56> H -1.666594 2.281032 -3.979276
| 57> H -1.165922 2.035435 -1.571092
| 58> H 3.622704 -8.508951 4.939340
| 59> H 2.344608 -7.817453 2.937850
| 60> C 4.032137 -7.791101 4.222778
| 61> H 4.696529 -8.309487 3.525223
| 62> N 2.932785 -7.146076 3.481813
| 63> H 2.277052 -6.592786 4.110347
| 64> H 4.597499 -7.025510 4.762093
| 65> H 3.269849 -6.425562 2.787786
| 66> *
| 67>
| 68>                          ****END OF INPUT****

CARTESIAN COORDINATES (ANGSTROEM)
---------------------------------
  C      3.321334    3.304660    2.430157
  N      2.356571    2.328752    1.891132
  H      3.929482    2.825089    3.202898
  H      2.779051    4.148026    2.867131
  H      3.970752    3.667461    1.628343
  H      1.712427    1.919960    2.626954
  H      2.798301    1.476145    1.466883
  H      1.726191    2.717573    1.143366
  Pb     0.009140   -0.219752    0.669245
  Cl     2.734153   -0.582374    0.822555
  Cl     0.265200    2.975475   -0.267065
  Cl     0.407141    0.620221    3.549660
  Cl    -3.275831   -0.330838   -0.006767
  Cl     0.041574   -1.132269   -2.228006
  Cl    -0.562460   -2.699144    1.869431
  N     -2.185808   -3.054212   -0.959335
  C     -3.018599   -3.892984   -1.852407
  H     -2.697680   -2.199715   -0.614166
  H     -1.345672   -2.675212   -1.453465
  H     -3.863008   -4.284793   -1.282203
  H     -2.403708   -4.719219   -2.215644
  H     -3.366846   -3.277457   -2.686457
  H     -1.855008   -3.591944   -0.148281
  Cl     3.320104   -4.792684    1.555841
  Cl     1.060374   -5.173297    4.807022
  Pb     0.267077   -5.449829    1.506012
  N      2.161285   -2.658962    3.515767
  C      3.006676   -1.740565    4.311813
  H      2.698023   -3.156655    2.770259
  H      1.390718   -2.163400    3.045648
  H      3.799912   -2.319606    4.793333
  H      2.384520   -1.246095    5.060700
  H      3.427402   -0.991699    3.638613
  H      1.731703   -3.427574    4.095222
  Cl     0.323505   -5.388249   -1.332593
  H     -2.444419   -8.567556   -2.232135
  H     -0.598109   -7.323819   -1.165277
  H     -1.004862   -9.612620   -2.073837
  C     -1.775778   -9.065444   -1.523604
  N     -1.147567   -8.055720   -0.651573
  Cl    -2.550299   -5.937382    1.102963
  H     -1.842497   -7.478800   -0.094428
  H     -0.483324   -8.457680    0.056334
  H     -2.352281   -9.766255   -0.913124
  Cl     0.851886   -8.675661    1.617170
  H     -3.020852    1.137851   -3.759427
  H     -2.443836    0.935457   -1.388789
  C     -2.421148    1.915242   -3.276964
  H     -3.072919    2.741318   -2.978333
  N     -1.760461    1.345922   -2.088558
  H     -1.130632    0.530708   -2.323343
  H     -1.666594    2.281032   -3.979276
  H     -1.165922    2.035435   -1.571092
  H      3.622704   -8.508951    4.939340
  H      2.344608   -7.817453    2.937850
  C      4.032137   -7.791101    4.222778
  H      4.696529   -8.309487    3.525223
  N      2.932785   -7.146076    3.481813
  H      2.277052   -6.592786    4.110347
  H      4.597499   -7.025510    4.762093
  H      3.269849   -6.425562    2.787786

 Total Charge           Charge          ....   -1
 Multiplicity           Mult            ....    1
 Number of Electrons    NEL             ....  346
 Basis Dimension        Dim             .... 1095

ORBITAL ENERGIES
----------------

  NO   OCC          E(Eh)            E(eV)
   0   2.0000    -102.761847     -2796.2920
   1   2.0000    -102.739307     -2795.6787
   2   2.0000    -102.739168     -2795.6749
   3   2.0000    -102.737109     -2795.6189
   4   2.0000    -102.733615     -2795.5238
   5   2.0000    -102.729530     -2795.4126
   6   2.0000    -102.726543     -2795.3314
   7   2.0000    -102.723911     -2795.2597
   8   2.0000    -102.722881     -2795.2317
   9   2.0000    -102.721049     -2795.1818
  10   2.0000    -102.718410     -2795.1100
  11   2.0000     -14.848322      -404.0434
  12   2.0000     -14.838064      -403.7642
  13   2.0000     -14.835303      -403.6891
  14   2.0000     -14.833752      -403.6469
  15   2.0000     -14.833658      -403.6443
  16   2.0000     -14.819969      -403.2719
  17   2.0000     -10.617412      -288.9145
  18   2.0000     -10.609556      -288.7007
  19   2.0000     -10.606018      -288.6044
  20   2.0000     -10.605480      -288.5898
  21   2.0000     -10.584996      -288.0324
  22   2.0000     -10.574039      -287.7342
  23   2.0000      -9.769430      -265.8397
  24   2.0000      -9.746054      -265.2036
  25   2.0000      -9.745877      -265.1988
  26   2.0000      -9.744039      -265.1488
  27   2.0000      -9.740591      -265.0550
  28   2.0000      -9.736564      -264.9454
  29   2.0000      -9.733599      -264.8647
  30   2.0000      -9.731067      -264.7958
  31   2.0000      -9.730416      -264.7781
  32   2.0000      -9.728252      -264.7192
  33   2.0000      -9.725011      -264.6310
  34   2.0000      -7.406235      -201.5339
  35   2.0000      -7.404906      -201.4977
  36   2.0000      -7.404813      -201.4952
  37   2.0000      -7.382681      -200.8930
  38   2.0000      -7.382592      -200.8906
  39   2.0000      -7.381991      -200.8742
  40   2.0000      -7.381674      -200.8656
  41   2.0000      -7.381516      -200.8613
  42   2.0000      -7.381207      -200.8529
  43   2.0000      -7.380905      -200.8446
  44   2.0000      -7.379755      -200.8133
  45   2.0000      -7.379308      -200.8012
  46   2.0000      -7.376974      -200.7377
  47   2.0000      -7.376786      -200.7326
  48   2.0000      -7.376122      -200.7145
  49   2.0000      -7.372821      -200.6247
  50   2.0000      -7.372630      -200.6195
  51   2.0000      -7.372190      -200.6075
  52   2.0000      -7.370042      -200.5490
  53   2.0000      -7.369722      -200.5403
  54   2.0000      -7.369146      -200.5247
  55   2.0000      -7.367279      -200.4739
  56   2.0000      -7.367171      -200.4709
  57   2.0000      -7.366701      -200.4581
  58   2.0000      -7.366701      -200.4581
  59   2.0000      -7.366325      -200.4479
  60   2.0000      -7.366163      -200.4435
  61   2.0000      -7.364529      -200.3990
  62   2.0000      -7.364174      -200.3894
  63   2.0000      -7.364065      -200.3864
  64   2.0000      -7.361474      -200.3159
  65   2.0000      -7.361097      -200.3056
  66   2.0000      -7.360523      -200.2900
  67   2.0000      -5.712936      -155.4569
  68   2.0000      -5.704637      -155.2311
  69   2.0000      -3.484068       -94.8063
  70   2.0000      -3.482674       -94.7684
  71   2.0000      -3.482589       -94.7661
  72   2.0000      -3.475849       -94.5827
  73   2.0000      -3.474667       -94.5505
  74   2.0000      -3.474025       -94.5330
  75   2.0000      -1.029615       -28.0173
  76   2.0000      -1.020162       -27.7600
  77   2.0000      -1.017587       -27.6900
  78   2.0000      -1.016353       -27.6564
  79   2.0000      -1.012054       -27.5394
  80   2.0000      -1.001009       -27.2388
  81   2.0000      -0.874669       -23.8010
  82   2.0000      -0.872381       -23.7387
  83   2.0000      -0.871308       -23.7095
  84   2.0000      -0.870823       -23.6963
  85   2.0000      -0.869501       -23.6603
  86   2.0000      -0.867418       -23.6037
  87   2.0000      -0.864955       -23.5366
  88   2.0000      -0.863623       -23.5004
  89   2.0000      -0.862588       -23.4722
  90   2.0000      -0.861372       -23.4391
  91   2.0000      -0.783613       -21.3232
  92   2.0000      -0.771965       -21.0062
  93   2.0000      -0.764462       -20.8021
  94   2.0000      -0.760331       -20.6897
  95   2.0000      -0.759388       -20.6640
  96   2.0000      -0.755193       -20.5498
  97   2.0000      -0.753777       -20.5113
  98   2.0000      -0.752247       -20.4697
  99   2.0000      -0.749043       -20.3825
 100   2.0000      -0.746154       -20.3039
 101   2.0000      -0.745528       -20.2869
 102   2.0000      -0.744923       -20.2704
 103   2.0000      -0.739534       -20.1237
 104   2.0000      -0.739348       -20.1187
 105   2.0000      -0.733460       -19.9585
 106   2.0000      -0.728804       -19.8318
 107   2.0000      -0.719803       -19.5868
 108   2.0000      -0.561889       -15.2898
 109   2.0000      -0.555310       -15.1108
 110   2.0000      -0.555006       -15.1025
 111   2.0000      -0.550762       -14.9870
 112   2.0000      -0.550266       -14.9735
 113   2.0000      -0.548616       -14.9286
 114   2.0000      -0.546152       -14.8616
 115   2.0000      -0.545316       -14.8388
 116   2.0000      -0.543455       -14.7882
 117   2.0000      -0.536807       -14.6073
 118   2.0000      -0.535934       -14.5835
 119   2.0000      -0.526545       -14.3280
 120   2.0000      -0.500598       -13.6220
 121   2.0000      -0.491678       -13.3792
 122   2.0000      -0.487362       -13.2618
 123   2.0000      -0.486401       -13.2357
 124   2.0000      -0.468578       -12.7507
 125   2.0000      -0.460540       -12.5319
 126   2.0000      -0.454173       -12.3587
 127   2.0000      -0.437615       -11.9081
 128   2.0000      -0.425406       -11.5759
 129   2.0000      -0.423119       -11.5136
 130   2.0000      -0.417957       -11.3732
 131   2.0000      -0.414959       -11.2916
 132   2.0000      -0.413304       -11.2466
 133   2.0000      -0.413216       -11.2442
 134   2.0000      -0.412065       -11.2129
 135   2.0000      -0.411474       -11.1968
 136   2.0000      -0.400699       -10.9036
 137   2.0000      -0.394429       -10.7330
 138   2.0000      -0.390515       -10.6264
 139   2.0000      -0.384044       -10.4504
 140   2.0000      -0.288389        -7.8475
 141   2.0000      -0.276613        -7.5270
 142   2.0000      -0.270353        -7.3567
 143   2.0000      -0.264374        -7.1940
 144   2.0000      -0.256947        -6.9919
 145   2.0000      -0.256303        -6.9744
 146   2.0000      -0.252587        -6.8732
 147   2.0000      -0.248042        -6.7496
 148   2.0000      -0.244691        -6.6584
 149   2.0000      -0.243177        -6.6172
 150   2.0000      -0.242372        -6.5953
 151   2.0000      -0.238503        -6.4900
 152   2.0000      -0.237279        -6.4567
 153   2.0000      -0.236265        -6.4291
 154   2.0000      -0.235875        -6.4185
 155   2.0000      -0.233082        -6.3425
 156   2.0000      -0.231372        -6.2959
 157   2.0000      -0.230090        -6.2611
 158   2.0000      -0.229765        -6.2522
 159   2.0000      -0.228605        -6.2207
 160   2.0000      -0.227613        -6.1937
 161   2.0000      -0.227021        -6.1776
 162   2.0000      -0.225614        -6.1393
 163   2.0000      -0.225489        -6.1359
 164   2.0000      -0.224964        -6.1216
 165   2.0000      -0.224821        -6.1177
 166   2.0000      -0.222443        -6.0530
 167   2.0000      -0.220353        -5.9961
 168   2.0000      -0.219248        -5.9660
 169   2.0000      -0.217256        -5.9118
 170   2.0000      -0.211569        -5.7571
 171   2.0000      -0.196447        -5.3456
 172   2.0000      -0.186315        -5.0699
 173   0.0000       0.091840         2.4991
 174   0.0000       0.104278         2.8376
 175   0.0000       0.115718         3.1488
 176   0.0000       0.118906         3.2356
 177   0.0000       0.123564         3.3624

MULLIKEN ATOMIC CHARGES
-----------------------
   0 C :   -0.250477
   1 N :   -0.287515
   2 H :    0.136607
   3 H :    0.141520
   4 H :    0.138486
   5 H :    0.271439
   6 H :    0.267791
   7 H :    0.280878
   8 Pb:    0.991768
   9 Cl:   -0.605516
  10 Cl:   -0.723848
  11 Cl:   -0.673895
  12 Cl:   -0.697272
  13 Cl:   -0.658104
  14 Cl:   -0.582217
  15 N :   -0.274991
  16 C :   -0.241156
  17 H :    0.276945
  18 H :    0.297880
  19 H :    0.147867
  20 H :    0.138856
  21 H :    0.122395
  22 H :    0.290661
  23 Cl:   -0.672502
  24 Cl:   -0.697699
  25 Pb:    0.995921
  26 N :   -0.283898
  27 C :   -0.233473
  28 H :    0.295317
  29 H :    0.295891
  30 H :    0.116573
  31 H :    0.149422
  32 H :    0.135049
  33 H :    0.281462
  34 Cl:   -0.615511
  35 H :    0.137042
  36 H :    0.266923
  37 H :    0.142267
  38 C :   -0.249866
  39 N :   -0.289345
  40 Cl:   -0.644733
  41 H :    0.274669
  42 H :    0.280938
  43 H :    0.142969
  44 Cl:   -0.717279
  45 H :    0.134912
  46 H :    0.271615
  47 C :   -0.244471
  48 H :    0.137767
  49 N :   -0.283726
  50 H :    0.260888
  51 H :    0.139363
  52 H :    0.273981
  53 H :    0.136394
  54 H :    0.271769
  55 C :   -0.245660
  56 H :    0.137639
  57 N :   -0.285974
  58 H :    0.276000
  59 H :    0.137702
  60 H :    0.263563
Sum of atomic charges:   -1.0000000

LOEWDIN ATOMIC CHARGES
----------------------
   0 C :   -0.297654
   1 N :    0.064936
   2 H :    0.117653
   3 H :    0.119593
   4 H :    0.117528
   5 H :    0.148998
   6 H :    0.157150
   7 H :    0.143609
   8 Pb:    0.079301
   9 Cl:   -0.323440
  10 Cl:   -0.544260
  11 Cl:   -0.463085
  12 Cl:   -0.513911
  13 Cl:   -0.428661
  14 Cl:   -0.137313
  15 N :    0.092178
  16 C :   -0.302568
  17 H :    0.144165
  18 H :    0.163344
  19 H :    0.117045
  20 H :    0.111708
  21 H :    0.112646
  22 H :    0.173894
  23 Cl:   -0.448439
  24 Cl:   -0.501068
  25 Pb:    0.124202
  26 N :    0.084717
  27 C :   -0.306330
  28 H :    0.152570
  29 H :    0.169902
  30 H :    0.110006
  31 H :    0.117125
  32 H :    0.110684
  33 H :    0.136903
  34 Cl:   -0.364610
  35 H :    0.117835
  36 H :    0.155371
  37 H :    0.119038
  38 C :   -0.295991
  39 N :    0.066224
  40 Cl:   -0.399339
  41 H :    0.153562
  42 H :    0.145899
  43 H :    0.119871
  44 Cl:   -0.530694
  45 H :    0.118257
  46 H :    0.145518
  47 C :   -0.298193
  48 H :    0.117653
  49 N :    0.063286
  50 H :    0.142370
  51 H :    0.118504
  52 H :    0.151737
  53 H :    0.117251
  54 H :    0.152129
  55 C :   -0.299272
  56 H :    0.117458
  57 N :    0.061852
  58 H :    0.139412
  59 H :    0.119008
  60 H :    0.142734

  Mayer bond orders larger than 0.1
B(  0-C ,  1-N ) :   0.9353 B(  0-C ,  2-H ) :   0.9748 B(  0-C ,  3-H ) :   0.9747
B(  0-C ,  4-H ) :   0.9744 B(  1-N ,  5-H ) :   0.7827 B(  1-N ,  6-H ) :   0.8196
B(  1-N ,  7-H ) :   0.7960 B(  5-H , 11-Cl) :   0.2338 B(  6-H ,  9-Cl) :   0.1763
B(  7-H , 10-Cl) :   0.1954 B(  8-Pb,  9-Cl) :   0.4939 B(  8-Pb, 10-Cl) :   0.1597
B(  8-Pb, 11-Cl) :   0.3181 B(  8-Pb, 12-Cl) :   0.1499 B(  8-Pb, 13-Cl) :   0.2813
B(  8-Pb, 14-Cl) :   0.3234 B( 10-Cl, 52-H ) :   0.1707 B( 12-Cl, 17-H ) :   0.2128
B( 12-Cl, 46-H ) :   0.2256 B( 13-Cl, 18-H ) :   0.1246 B( 13-Cl, 50-H ) :   0.2410
B( 14-Cl, 25-Pb) :   0.2972 B( 15-N , 16-C ) :   0.9297 B( 15-N , 17-H ) :   0.7913
B( 15-N , 18-H ) :   0.8304 B( 15-N , 22-H ) :   0.8717 B( 16-C , 19-H ) :   0.9698
B( 16-C , 20-H ) :   0.9654 B( 16-C , 21-H ) :   0.9708 B( 23-Cl, 25-Pb) :   0.2489
B( 23-Cl, 28-H ) :   0.1385 B( 23-Cl, 60-H ) :   0.2333 B( 24-Cl, 25-Pb) :   0.1478
B( 24-Cl, 33-H ) :   0.2010 B( 24-Cl, 58-H ) :   0.2365 B( 25-Pb, 34-Cl) :   0.4639
B( 25-Pb, 40-Cl) :   0.3750 B( 25-Pb, 44-Cl) :   0.1858 B( 26-N , 27-C ) :   0.9281
B( 26-N , 28-H ) :   0.8230 B( 26-N , 29-H ) :   0.8664 B( 26-N , 33-H ) :   0.7935
B( 27-C , 30-H ) :   0.9703 B( 27-C , 31-H ) :   0.9695 B( 27-C , 32-H ) :   0.9674
B( 34-Cl, 36-H ) :   0.1913 B( 35-H , 38-C ) :   0.9747 B( 36-H , 39-N ) :   0.8127
B( 37-H , 38-C ) :   0.9738 B( 38-C , 39-N ) :   0.9320 B( 38-C , 43-H ) :   0.9743
B( 39-N , 41-H ) :   0.7931 B( 39-N , 42-H ) :   0.7986 B( 40-Cl, 41-H ) :   0.2116
B( 42-H , 44-Cl) :   0.1937 B( 44-Cl, 54-H ) :   0.1572 B( 45-H , 47-C ) :   0.9748
B( 46-H , 49-N ) :   0.7850 B( 47-C , 48-H ) :   0.9755 B( 47-C , 49-N ) :   0.9385
B( 47-C , 51-H ) :   0.9746 B( 49-N , 50-H ) :   0.7852 B( 49-N , 52-H ) :   0.8185
B( 53-H , 55-C ) :   0.9757 B( 54-H , 57-N ) :   0.8273 B( 55-C , 56-H ) :   0.9747
B( 55-C , 57-N ) :   0.9370 B( 55-C , 59-H ) :   0.9744 B( 57-N , 58-H ) :   0.7729
B( 57-N , 60-H ) :   0.7872

MP2 TOTAL ENERGY:    -6025.865996535 Eh
Dispersion correction           -0.080663283
FINAL SINGLE POINT ENERGY     -6025.946659817570

DIPOLE MOMENT
-------------
                                X             Y             Z
Electronic contribution:    -37.26259       2.32856      28.88202
Nuclear contribution   :     38.13551      -3.06825     -30.39116
                        -----------------------------------------
Total Dipole Moment    :      0.87292      -0.73969      -1.50914
                        -----------------------------------------
Magnitude (a.u.)       :      1.89384
Magnitude (Debye)      :      4.81377

                             ****ORCA TERMINATED NORMALLY****
TOTAL RUN TIME: 0 days 1 hours 41 minutes 47 seconds 934 msec
