                         Program Version 3.0.3 - RELEASE   -
|  1> ! PW6B95 def2-TZVP GCP(DFT/TZ) ECP{def2-TZVP} Grid7 MORead
|  2> %pal nprocs 2 end
|  3> %method
|  4>  RunTyp Gradient
|  5>  end
|  6> %maxcore 2000
|  7> %moinp "previous.gbw"
|  8> *xyz 0 1
|  9> Pb 0.239499 0.510035 0.422878
| 10> Cl 2.672267 0.760089 -0.546043
| 11> Cl 0.175482 3.032897 1.075288
| 12> Cl 1.185891 -0.211234 2.738145
| 13> Cs 4.027243 4.753876 3.437163
| 14> *
| 15>
| 16>                          ****END OF INPUT****

CARTESIAN COORDINATES (ANGSTROEM)
---------------------------------
  Pb     0.239499    0.510035    0.422878
  Cl     2.672267    0.760089   -0.546043
  Cl     0.175482    3.032897    1.075288
  Cl     1.185891   -0.211234    2.738145
  Cs     4.027243    4.753876    3.437163

 Total Charge           Charge          ....    0
 Multiplicity           Mult            ....    1
 Number of Electrons    NEL             ....   82
 Basis Dimension        Dim             ....  190

ORBITAL ENERGIES
----------------

  NO   OCC          E(Eh)            E(eV)
   0   2.0000    -101.817614     -2770.5981
   1   2.0000    -101.807532     -2770.3238
   2   2.0000    -101.803655     -2770.2183
   3   2.0000      -9.457953      -257.3640
   4   2.0000      -9.447739      -257.0860
   5   2.0000      -9.443714      -256.9765
   6   2.0000      -7.187636      -195.5855
   7   2.0000      -7.185007      -195.5140
   8   2.0000      -7.184798      -195.5083
   9   2.0000      -7.177556      -195.3112
  10   2.0000      -7.174686      -195.2331
  11   2.0000      -7.174547      -195.2293
  12   2.0000      -7.173560      -195.2025
  13   2.0000      -7.170667      -195.1238
  14   2.0000      -7.170527      -195.1200
  15   2.0000      -5.514044      -150.0448
  16   2.0000      -3.338061       -90.8332
  17   2.0000      -3.337680       -90.8229
  18   2.0000      -3.336214       -90.7830
  19   2.0000      -1.163931       -31.6722
  20   2.0000      -0.834213       -22.7001
  21   2.0000      -0.832785       -22.6612
  22   2.0000      -0.827883       -22.5278
  23   2.0000      -0.827448       -22.5160
  24   2.0000      -0.826263       -22.4838
  25   2.0000      -0.730696       -19.8832
  26   2.0000      -0.712355       -19.3842
  27   2.0000      -0.704965       -19.1831
  28   2.0000      -0.632828       -17.2201
  29   2.0000      -0.632678       -17.2161
  30   2.0000      -0.630117       -17.1464
  31   2.0000      -0.453861       -12.3502
  32   2.0000      -0.281797        -7.6681
  33   2.0000      -0.274798        -7.4776
  34   2.0000      -0.265680        -7.2295
  35   2.0000      -0.249312        -6.7841
  36   2.0000      -0.246503        -6.7077
  37   2.0000      -0.234240        -6.3740
  38   2.0000      -0.229911        -6.2562
  39   2.0000      -0.226065        -6.1515
  40   2.0000      -0.220486        -5.9997
  41   0.0000      -0.090568        -2.4645
  42   0.0000      -0.035015        -0.9528
  43   0.0000      -0.034049        -0.9265
  44   0.0000      -0.034007        -0.9254
  45   0.0000      -0.028997        -0.7890

MULLIKEN ATOMIC CHARGES
-----------------------
   0 Pb:    0.774098
   1 Cl:   -0.558325
   2 Cl:   -0.575554
   3 Cl:   -0.552774
   4 Cs:    0.912554
Sum of atomic charges:   -0.0000000

LOEWDIN ATOMIC CHARGES
----------------------
   0 Pb:    0.004694
   1 Cl:   -0.279463
   2 Cl:   -0.259306
   3 Cl:   -0.262191
   4 Cs:    0.796265

  Mayer bond orders larger than 0.1
B(  0-Pb,  1-Cl) :   0.7067 B(  0-Pb,  2-Cl) :   0.6422 B(  0-Pb,  3-Cl) :   0.7156

FINAL SINGLE POINT ENERGY     -1595.024476520917

DIPOLE MOMENT
-------------
                                X             Y             Z
Electronic contribution:     48.37053      88.49601      51.73323
Nuclear contribution   :    -44.59490     -82.91987     -48.16244
                        -----------------------------------------
Total Dipole Moment    :      3.77563       5.57614       3.57079
                        -----------------------------------------
Magnitude (a.u.)       :      7.62229
Magnitude (Debye)      :     19.37432

                             ****ORCA TERMINATED NORMALLY****
TOTAL RUN TIME: 0 days 0 hours 12 minutes 35 seconds 134 msec
