                         Program Version 3.0.3 - RELEASE   -
|  1> ! RIJCOSX RI-B2PLYP D3BJ def2-TZVP ECP{def2-TZVP} TIGHTSCF Grid5 FinalGrid6 SlowConv MORead
|  2> %method
|  3>  RunTyp Gradient
|  4>  end
|  5> %maxcore 1000
|  6> %moinp "previous.gbw"
|  7> *xyz 0 1
|  8> C -2.717250 0.395654 0.059824
|  9> N -2.453250 0.960148 -1.298120
| 10> H -1.531830 1.167990 -1.597120
| 11> H -2.913020 1.817080 -1.514510
| 12> H -2.773830 0.277444 -1.975620
| 13> H -2.158010 0.848039 0.877707
| 14> H -2.425030 -0.628774 -0.129479
| 15> H -3.774310 0.449954 0.204630
| 16> Pb -2.901940 -2.653980 -2.312160
| 17> Cl -1.272750 -4.408240 -2.777520
| 18> Cl -2.598680 -0.604572 -3.575750
| 19> Cl -4.145640 -2.485880 -0.193719
| 20> *
| 21>
| 22>                          ****END OF INPUT****

CARTESIAN COORDINATES (ANGSTROEM)
---------------------------------
  C     -2.717250    0.395654    0.059824
  N     -2.453250    0.960148   -1.298120
  H     -1.531830    1.167990   -1.597120
  H     -2.913020    1.817080   -1.514510
  H     -2.773830    0.277444   -1.975620
  H     -2.158010    0.848039    0.877707
  H     -2.425030   -0.628774   -0.129479
  H     -3.774310    0.449954    0.204630
  Pb    -2.901940   -2.653980   -2.312160
  Cl    -1.272750   -4.408240   -2.777520
  Cl    -2.598680   -0.604572   -3.575750
  Cl    -4.145640   -2.485880   -0.193719

 Total Charge           Charge          ....    0
 Multiplicity           Mult            ....    1
 Number of Electrons    NEL             ....   92
 Basis Dimension        Dim             ....  259

ORBITAL ENERGIES
----------------

  NO   OCC          E(Eh)            E(eV)
   0   2.0000    -102.866385     -2799.1367
   1   2.0000    -102.827519     -2798.0790
   2   2.0000    -102.817084     -2797.7951
   3   2.0000     -14.995494      -408.0481
   4   2.0000     -10.719870      -291.7025
   5   2.0000      -9.877541      -268.7815
   6   2.0000      -9.836571      -267.6667
   7   2.0000      -9.825353      -267.3614
   8   2.0000      -7.513639      -204.4565
   9   2.0000      -7.513014      -204.4395
  10   2.0000      -7.512421      -204.4234
  11   2.0000      -7.473055      -203.3522
  12   2.0000      -7.471912      -203.3211
  13   2.0000      -7.471730      -203.3161
  14   2.0000      -7.462011      -203.0517
  15   2.0000      -7.460746      -203.0172
  16   2.0000      -7.460398      -203.0077
  17   2.0000      -5.773321      -157.1001
  18   2.0000      -3.547171       -96.5234
  19   2.0000      -3.543903       -96.4345
  20   2.0000      -3.541883       -96.3795
  21   2.0000      -1.195587       -32.5336
  22   2.0000      -0.962414       -26.1886
  23   2.0000      -0.947929       -25.7945
  24   2.0000      -0.946440       -25.7540
  25   2.0000      -0.936896       -25.4942
  26   2.0000      -0.935676       -25.4610
  27   2.0000      -0.899236       -24.4695
  28   2.0000      -0.889346       -24.2003
  29   2.0000      -0.849387       -23.1130
  30   2.0000      -0.835017       -22.7220
  31   2.0000      -0.724194       -19.7063
  32   2.0000      -0.713864       -19.4252
  33   2.0000      -0.623550       -16.9677
  34   2.0000      -0.552354       -15.0303
  35   2.0000      -0.547641       -14.9021
  36   2.0000      -0.536880       -14.6093
  37   2.0000      -0.400874       -10.9083
  38   2.0000      -0.391193       -10.6449
  39   2.0000      -0.381996       -10.3946
  40   2.0000      -0.360255        -9.8030
  41   2.0000      -0.336386        -9.1535
  42   2.0000      -0.330948        -9.0055
  43   2.0000      -0.318484        -8.6664
  44   2.0000      -0.315718        -8.5911
  45   2.0000      -0.226701        -6.1688
  46   0.0000      -0.031585        -0.8595
  47   0.0000      -0.002210        -0.0601
  48   0.0000       0.053057         1.4437
  49   0.0000       0.061091         1.6624
  50   0.0000       0.072187         1.9643

Dispersion correction            ...

MULLIKEN ATOMIC CHARGES
-----------------------
   0 C :   -0.244430
   1 N :   -0.281834
   2 H :    0.281549
   3 H :    0.269386
   4 H :    0.285244
   5 H :    0.163979
   6 H :    0.159497
   7 H :    0.176953
   8 Pb:    0.742143
   9 Cl:   -0.498538
  10 Cl:   -0.521229
  11 Cl:   -0.532720
Sum of atomic charges:   -0.0000000

LOEWDIN ATOMIC CHARGES
----------------------
   0 C :   -0.275468
   1 N :    0.124537
   2 H :    0.181597
   3 H :    0.184012
   4 H :    0.108258
   5 H :    0.123706
   6 H :    0.121104
   7 H :    0.127729
   8 Pb:   -0.227494
   9 Cl:   -0.164995
  10 Cl:   -0.110269
  11 Cl:   -0.192719

  Mayer bond orders larger than 0.1
B(  0-C ,  1-N ) :   0.8497 B(  0-C ,  5-H ) :   0.9472 B(  0-C ,  6-H ) :   0.9375
B(  0-C ,  7-H ) :   0.9448 B(  1-N ,  2-H ) :   0.8884 B(  1-N ,  3-H ) :   0.8916
B(  1-N ,  4-H ) :   0.7514 B(  4-H , 10-Cl) :   0.2426 B(  8-Pb,  9-Cl) :   0.7999
B(  8-Pb, 10-Cl) :   0.4880 B(  8-Pb, 11-Cl) :   0.6426

MP2 TOTAL ENERGY:    -1669.525062628 Eh
Dispersion correction           -0.013159708
FINAL SINGLE POINT ENERGY     -1669.538222335780

DIPOLE MOMENT
-------------
                                X             Y             Z
Electronic contribution:    -15.96713     -67.92557     -36.71838
Nuclear contribution   :     16.13383      72.57136      37.86464
                        -----------------------------------------
Total Dipole Moment    :      0.16670       4.64579       1.14626
                        -----------------------------------------
Magnitude (a.u.)       :      4.78802
Magnitude (Debye)      :     12.17017

                             ****ORCA TERMINATED NORMALLY****
TOTAL RUN TIME: 0 days 0 hours 23 minutes 14 seconds 21 msec
