                         Program Version 3.0.3 - RELEASE   -
|  1> ! RIJCOSX RI-B2PLYP D3BJ def2-TZVP ECP{def2-TZVP} TIGHTSCF Grid5 FinalGrid6 MORead
|  2> %maxcore 4000
|  3> %moinp "previous.gbw"
|  4> *xyz -1 1
|  5> C 3.321334 3.304660 2.430157
|  6> N 2.356571 2.328752 1.891132
|  7> H 3.929482 2.825089 3.202898
|  8> H 2.779051 4.148026 2.867131
|  9> H 3.970752 3.667461 1.628343
| 10> H 1.712427 1.919960 2.626954
| 11> H 2.798301 1.476145 1.466883
| 12> H 1.726191 2.717573 1.143366
| 13> Pb -0.013925 -0.133827 0.679277
| 14> Cl 2.728249 -0.472106 0.812701
| 15> Cl 0.231704 2.950976 -0.250288
| 16> Cl 0.361324 0.658627 3.478917
| 17> Cl -3.374064 -0.343153 -0.008106
| 18> Cl -0.028040 -1.201224 -2.160653
| 19> Cl -0.626060 -2.733069 1.802027
| 20> N -2.185808 -3.054212 -0.959335
| 21> C -3.018599 -3.892984 -1.852407
| 22> H -2.697680 -2.199715 -0.614166
| 23> H -1.345672 -2.675212 -1.453465
| 24> H -3.863008 -4.284793 -1.282203
| 25> H -2.403708 -4.719219 -2.215644
| 26> H -3.366846 -3.277457 -2.686457
| 27> H -1.855008 -3.591944 -0.148281
| 28> Cl 3.371705 -4.809010 1.533686
| 29> Cl 0.939926 -5.294951 4.899393
| 30> Pb 0.380634 -5.508511 1.470315
| 31> N 2.161285 -2.658962 3.515767
| 32> C 3.006676 -1.740565 4.311813
| 33> H 2.698023 -3.156655 2.770259
| 34> H 1.390718 -2.163400 3.045648
| 35> H 3.799912 -2.319606 4.793333
| 36> H 2.384520 -1.246095 5.060700
| 37> H 3.427402 -0.991699 3.638613
| 38> H 1.731703 -3.427574 4.095222
| 39> Cl 0.293890 -5.428816 -1.240166
| 40> H -2.444419 -8.567556 -2.232135
| 41> H -0.598109 -7.323819 -1.165277
| 42> H -1.004862 -9.612620 -2.073837
| 43> C -1.775778 -9.065444 -1.523604
| 44> N -1.147567 -8.055720 -0.651573
| 45> Cl -2.556737 -5.995319 1.086109
| 46> H -1.842497 -7.478800 -0.094428
| 47> H -0.483324 -8.457680 0.056334
| 48> H -2.352281 -9.766255 -0.913124
| 49> Cl 0.845428 -8.633214 1.651477
| 50> H -3.020852 1.137851 -3.759427
| 51> H -2.443836 0.935457 -1.388789
| 52> C -2.421148 1.915242 -3.276964
| 53> H -3.072919 2.741318 -2.978333
| 54> N -1.760461 1.345922 -2.088558
| 55> H -1.130632 0.530708 -2.323343
| 56> H -1.666594 2.281032 -3.979276
| 57> H -1.165922 2.035435 -1.571092
| 58> H 3.622704 -8.508951 4.939340
| 59> H 2.344608 -7.817453 2.937850
| 60> C 4.032137 -7.791101 4.222778
| 61> H 4.696529 -8.309487 3.525223
| 62> N 2.932785 -7.146076 3.481813
| 63> H 2.277052 -6.592786 4.110347
| 64> H 4.597499 -7.025510 4.762093
| 65> H 3.269849 -6.425562 2.787786
| 66> *
| 67>
| 68>                          ****END OF INPUT****

CARTESIAN COORDINATES (ANGSTROEM)
---------------------------------
  C      3.321334    3.304660    2.430157
  N      2.356571    2.328752    1.891132
  H      3.929482    2.825089    3.202898
  H      2.779051    4.148026    2.867131
  H      3.970752    3.667461    1.628343
  H      1.712427    1.919960    2.626954
  H      2.798301    1.476145    1.466883
  H      1.726191    2.717573    1.143366
  Pb    -0.013925   -0.133827    0.679277
  Cl     2.728249   -0.472106    0.812701
  Cl     0.231704    2.950976   -0.250288
  Cl     0.361324    0.658627    3.478917
  Cl    -3.374064   -0.343153   -0.008106
  Cl    -0.028040   -1.201224   -2.160653
  Cl    -0.626060   -2.733069    1.802027
  N     -2.185808   -3.054212   -0.959335
  C     -3.018599   -3.892984   -1.852407
  H     -2.697680   -2.199715   -0.614166
  H     -1.345672   -2.675212   -1.453465
  H     -3.863008   -4.284793   -1.282203
  H     -2.403708   -4.719219   -2.215644
  H     -3.366846   -3.277457   -2.686457
  H     -1.855008   -3.591944   -0.148281
  Cl     3.371705   -4.809010    1.533686
  Cl     0.939926   -5.294951    4.899393
  Pb     0.380634   -5.508511    1.470315
  N      2.161285   -2.658962    3.515767
  C      3.006676   -1.740565    4.311813
  H      2.698023   -3.156655    2.770259
  H      1.390718   -2.163400    3.045648
  H      3.799912   -2.319606    4.793333
  H      2.384520   -1.246095    5.060700
  H      3.427402   -0.991699    3.638613
  H      1.731703   -3.427574    4.095222
  Cl     0.293890   -5.428816   -1.240166
  H     -2.444419   -8.567556   -2.232135
  H     -0.598109   -7.323819   -1.165277
  H     -1.004862   -9.612620   -2.073837
  C     -1.775778   -9.065444   -1.523604
  N     -1.147567   -8.055720   -0.651573
  Cl    -2.556737   -5.995319    1.086109
  H     -1.842497   -7.478800   -0.094428
  H     -0.483324   -8.457680    0.056334
  H     -2.352281   -9.766255   -0.913124
  Cl     0.845428   -8.633214    1.651477
  H     -3.020852    1.137851   -3.759427
  H     -2.443836    0.935457   -1.388789
  C     -2.421148    1.915242   -3.276964
  H     -3.072919    2.741318   -2.978333
  N     -1.760461    1.345922   -2.088558
  H     -1.130632    0.530708   -2.323343
  H     -1.666594    2.281032   -3.979276
  H     -1.165922    2.035435   -1.571092
  H      3.622704   -8.508951    4.939340
  H      2.344608   -7.817453    2.937850
  C      4.032137   -7.791101    4.222778
  H      4.696529   -8.309487    3.525223
  N      2.932785   -7.146076    3.481813
  H      2.277052   -6.592786    4.110347
  H      4.597499   -7.025510    4.762093
  H      3.269849   -6.425562    2.787786

 Total Charge           Charge          ....   -1
 Multiplicity           Mult            ....    1
 Number of Electrons    NEL             ....  346
 Basis Dimension        Dim             .... 1095

ORBITAL ENERGIES
----------------

  NO   OCC          E(Eh)            E(eV)
   0   2.0000    -102.749168     -2795.9470
   1   2.0000    -102.747451     -2795.9003
   2   2.0000    -102.741251     -2795.7316
   3   2.0000    -102.737192     -2795.6211
   4   2.0000    -102.733305     -2795.5154
   5   2.0000    -102.731626     -2795.4697
   6   2.0000    -102.729783     -2795.4195
   7   2.0000    -102.726246     -2795.3233
   8   2.0000    -102.725154     -2795.2935
   9   2.0000    -102.714607     -2795.0066
  10   2.0000    -102.714192     -2794.9952
  11   2.0000     -14.842655      -403.8892
  12   2.0000     -14.839366      -403.7997
  13   2.0000     -14.837010      -403.7356
  14   2.0000     -14.836047      -403.7094
  15   2.0000     -14.834569      -403.6691
  16   2.0000     -14.822363      -403.3370
  17   2.0000     -10.614332      -288.8307
  18   2.0000     -10.610940      -288.7384
  19   2.0000     -10.607954      -288.6571
  20   2.0000     -10.606126      -288.6074
  21   2.0000     -10.583763      -287.9988
  22   2.0000     -10.578496      -287.8555
  23   2.0000      -9.756329      -265.4832
  24   2.0000      -9.754709      -265.4391
  25   2.0000      -9.748418      -265.2679
  26   2.0000      -9.744317      -265.1563
  27   2.0000      -9.740485      -265.0521
  28   2.0000      -9.738709      -265.0037
  29   2.0000      -9.737131      -264.9608
  30   2.0000      -9.733094      -264.8509
  31   2.0000      -9.731894      -264.8183
  32   2.0000      -9.721373      -264.5320
  33   2.0000      -9.721077      -264.5239
  34   2.0000      -7.393083      -201.1760
  35   2.0000      -7.391892      -201.1436
  36   2.0000      -7.391808      -201.1413
  37   2.0000      -7.391572      -201.1349
  38   2.0000      -7.390396      -201.1029
  39   2.0000      -7.389931      -201.0903
  40   2.0000      -7.385222      -200.9621
  41   2.0000      -7.384167      -200.9334
  42   2.0000      -7.383675      -200.9200
  43   2.0000      -7.380638      -200.8374
  44   2.0000      -7.380550      -200.8350
  45   2.0000      -7.379810      -200.8148
  46   2.0000      -7.376878      -200.7350
  47   2.0000      -7.376631      -200.7283
  48   2.0000      -7.376010      -200.7114
  49   2.0000      -7.374938      -200.6823
  50   2.0000      -7.374782      -200.6780
  51   2.0000      -7.374359      -200.6665
  52   2.0000      -7.373353      -200.6391
  53   2.0000      -7.373210      -200.6352
  54   2.0000      -7.372734      -200.6223
  55   2.0000      -7.369594      -200.5368
  56   2.0000      -7.369099      -200.5234
  57   2.0000      -7.368560      -200.5087
  58   2.0000      -7.368357      -200.5032
  59   2.0000      -7.367947      -200.4920
  60   2.0000      -7.367385      -200.4768
  61   2.0000      -7.357659      -200.2121
  62   2.0000      -7.357366      -200.2041
  63   2.0000      -7.357325      -200.2030
  64   2.0000      -7.357240      -200.2007
  65   2.0000      -7.357018      -200.1946
  66   2.0000      -7.356933      -200.1923
  67   2.0000      -5.708547      -155.3375
  68   2.0000      -5.704589      -155.2298
  69   2.0000      -3.479726       -94.6882
  70   2.0000      -3.478607       -94.6577
  71   2.0000      -3.477867       -94.6376
  72   2.0000      -3.475629       -94.5767
  73   2.0000      -3.474460       -94.5449
  74   2.0000      -3.474276       -94.5399
  75   2.0000      -1.025548       -27.9066
  76   2.0000      -1.021130       -27.7864
  77   2.0000      -1.020646       -27.7732
  78   2.0000      -1.017381       -27.6843
  79   2.0000      -1.012803       -27.5598
  80   2.0000      -1.002631       -27.2830
  81   2.0000      -0.870611       -23.6905
  82   2.0000      -0.868936       -23.6449
  83   2.0000      -0.867277       -23.5998
  84   2.0000      -0.866547       -23.5800
  85   2.0000      -0.866353       -23.5747
  86   2.0000      -0.865257       -23.5448
  87   2.0000      -0.865203       -23.5434
  88   2.0000      -0.863321       -23.4921
  89   2.0000      -0.862628       -23.4733
  90   2.0000      -0.861558       -23.4442
  91   2.0000      -0.775572       -21.1044
  92   2.0000      -0.771770       -21.0009
  93   2.0000      -0.767104       -20.8740
  94   2.0000      -0.762526       -20.7494
  95   2.0000      -0.761456       -20.7203
  96   2.0000      -0.759135       -20.6571
  97   2.0000      -0.756444       -20.5839
  98   2.0000      -0.752212       -20.4687
  99   2.0000      -0.748867       -20.3777
 100   2.0000      -0.745968       -20.2988
 101   2.0000      -0.745664       -20.2906
 102   2.0000      -0.741014       -20.1640
 103   2.0000      -0.740545       -20.1512
 104   2.0000      -0.736056       -20.0291
 105   2.0000      -0.735028       -20.0011
 106   2.0000      -0.727305       -19.7910
 107   2.0000      -0.721698       -19.6384
 108   2.0000      -0.559123       -15.2145
 109   2.0000      -0.557381       -15.1671
 110   2.0000      -0.551550       -15.0084
 111   2.0000      -0.550823       -14.9887
 112   2.0000      -0.550502       -14.9799
 113   2.0000      -0.547918       -14.9096
 114   2.0000      -0.547358       -14.8944
 115   2.0000      -0.547027       -14.8854
 116   2.0000      -0.544465       -14.8157
 117   2.0000      -0.541068       -14.7232
 118   2.0000      -0.536652       -14.6030
 119   2.0000      -0.528353       -14.3772
 120   2.0000      -0.497055       -13.5256
 121   2.0000      -0.493065       -13.4170
 122   2.0000      -0.490067       -13.3354
 123   2.0000      -0.487527       -13.2663
 124   2.0000      -0.470300       -12.7975
 125   2.0000      -0.460219       -12.5232
 126   2.0000      -0.450476       -12.2581
 127   2.0000      -0.438476       -11.9315
 128   2.0000      -0.422710       -11.5025
 129   2.0000      -0.420198       -11.4342
 130   2.0000      -0.419913       -11.4264
 131   2.0000      -0.416887       -11.3441
 132   2.0000      -0.415087       -11.2951
 133   2.0000      -0.413945       -11.2640
 134   2.0000      -0.413818       -11.2606
 135   2.0000      -0.411915       -11.2088
 136   2.0000      -0.399175       -10.8621
 137   2.0000      -0.393976       -10.7206
 138   2.0000      -0.392755       -10.6874
 139   2.0000      -0.388159       -10.5623
 140   2.0000      -0.281984        -7.6732
 141   2.0000      -0.272349        -7.4110
 142   2.0000      -0.266681        -7.2568
 143   2.0000      -0.266437        -7.2501
 144   2.0000      -0.260114        -7.0781
 145   2.0000      -0.256889        -6.9903
 146   2.0000      -0.254581        -6.9275
 147   2.0000      -0.248950        -6.7743
 148   2.0000      -0.246150        -6.6981
 149   2.0000      -0.244777        -6.6607
 150   2.0000      -0.242913        -6.6100
 151   2.0000      -0.240856        -6.5540
 152   2.0000      -0.239994        -6.5306
 153   2.0000      -0.238063        -6.4780
 154   2.0000      -0.236278        -6.4294
 155   2.0000      -0.233947        -6.3660
 156   2.0000      -0.233330        -6.3492
 157   2.0000      -0.232503        -6.3267
 158   2.0000      -0.231862        -6.3093
 159   2.0000      -0.230053        -6.2601
 160   2.0000      -0.229139        -6.2352
 161   2.0000      -0.226299        -6.1579
 162   2.0000      -0.223977        -6.0947
 163   2.0000      -0.220953        -6.0124
 164   2.0000      -0.220332        -5.9955
 165   2.0000      -0.220274        -5.9940
 166   2.0000      -0.219023        -5.9599
 167   2.0000      -0.218427        -5.9437
 168   2.0000      -0.216977        -5.9042
 169   2.0000      -0.215928        -5.8757
 170   2.0000      -0.214654        -5.8410
 171   2.0000      -0.193668        -5.2700
 172   2.0000      -0.186035        -5.0623
 173   0.0000       0.095251         2.5919
 174   0.0000       0.110949         3.0191
 175   0.0000       0.117201         3.1892
 176   0.0000       0.121847         3.3156
 177   0.0000       0.126455         3.4410

MULLIKEN ATOMIC CHARGES
-----------------------
   0 C :   -0.251574
   1 N :   -0.292172
   2 H :    0.135158
   3 H :    0.141272
   4 H :    0.138260
   5 H :    0.272011
   6 H :    0.270901
   7 H :    0.281354
   8 Pb:    0.994540
   9 Cl:   -0.608357
  10 Cl:   -0.713593
  11 Cl:   -0.656967
  12 Cl:   -0.703500
  13 Cl:   -0.665033
  14 Cl:   -0.606125
  15 N :   -0.275782
  16 C :   -0.240460
  17 H :    0.276121
  18 H :    0.299875
  19 H :    0.148641
  20 H :    0.133450
  21 H :    0.118781
  22 H :    0.296908
  23 Cl:   -0.666990
  24 Cl:   -0.704723
  25 Pb:    0.995548
  26 N :   -0.280104
  27 C :   -0.235227
  28 H :    0.293792
  29 H :    0.299854
  30 H :    0.121418
  31 H :    0.152576
  32 H :    0.139158
  33 H :    0.272311
  34 Cl:   -0.595610
  35 H :    0.136869
  36 H :    0.269563
  37 H :    0.138767
  38 C :   -0.250651
  39 N :   -0.291582
  40 Cl:   -0.659485
  41 H :    0.274263
  42 H :    0.279788
  43 H :    0.143092
  44 Cl:   -0.705249
  45 H :    0.138069
  46 H :    0.267463
  47 C :   -0.244978
  48 H :    0.139091
  49 N :   -0.283126
  50 H :    0.263055
  51 H :    0.138454
  52 H :    0.274938
  53 H :    0.139218
  54 H :    0.275181
  55 C :   -0.244877
  56 H :    0.136786
  57 N :   -0.286624
  58 H :    0.269002
  59 H :    0.136310
  60 H :    0.260951
Sum of atomic charges:   -1.0000000

LOEWDIN ATOMIC CHARGES
----------------------
   0 C :   -0.299343
   1 N :    0.059877
   2 H :    0.117171
   3 H :    0.119144
   4 H :    0.117342
   5 H :    0.146289
   6 H :    0.146071
   7 H :    0.145504
   8 Pb:    0.078877
   9 Cl:   -0.321608
  10 Cl:   -0.515890
  11 Cl:   -0.423517
  12 Cl:   -0.542903
  13 Cl:   -0.419629
  14 Cl:   -0.197628
  15 N :    0.086893
  16 C :   -0.305021
  17 H :    0.145231
  18 H :    0.151177
  19 H :    0.117408
  20 H :    0.110191
  21 H :    0.111161
  22 H :    0.171358
  23 Cl:   -0.440615
  24 Cl:   -0.554978
  25 Pb:    0.104762
  26 N :    0.096571
  27 C :   -0.299400
  28 H :    0.158679
  29 H :    0.177443
  30 H :    0.112020
  31 H :    0.119280
  32 H :    0.112419
  33 H :    0.158380
  34 Cl:   -0.293230
  35 H :    0.117771
  36 H :    0.151281
  37 H :    0.117443
  38 C :   -0.297919
  39 N :    0.062140
  40 Cl:   -0.439311
  41 H :    0.145207
  42 H :    0.148504
  43 H :    0.119839
  44 Cl:   -0.496747
  45 H :    0.119362
  46 H :    0.150566
  47 C :   -0.296762
  48 H :    0.118313
  49 N :    0.065072
  50 H :    0.146528
  51 H :    0.118197
  52 H :    0.150149
  53 H :    0.118295
  54 H :    0.150202
  55 C :   -0.298768
  56 H :    0.117135
  57 N :    0.061476
  58 H :    0.140988
  59 H :    0.118756
  60 H :    0.142795

  Mayer bond orders larger than 0.1
B(  0-C ,  1-N ) :   0.9353 B(  0-C ,  2-H ) :   0.9753 B(  0-C ,  3-H ) :   0.9750
B(  0-C ,  4-H ) :   0.9748 B(  1-N ,  5-H ) :   0.7825 B(  1-N ,  6-H ) :   0.8044
B(  1-N ,  7-H ) :   0.8024 B(  5-H , 11-Cl) :   0.2316 B(  6-H ,  9-Cl) :   0.1938
B(  7-H , 10-Cl) :   0.1841 B(  8-Pb,  9-Cl) :   0.4718 B(  8-Pb, 10-Cl) :   0.1864
B(  8-Pb, 11-Cl) :   0.3514 B(  8-Pb, 12-Cl) :   0.1413 B(  8-Pb, 13-Cl) :   0.2667
B(  8-Pb, 14-Cl) :   0.3024 B( 10-Cl, 52-H ) :   0.1694 B( 12-Cl, 17-H ) :   0.2080
B( 12-Cl, 46-H ) :   0.2341 B( 13-Cl, 18-H ) :   0.1323 B( 13-Cl, 50-H ) :   0.2292
B( 14-Cl, 25-Pb) :   0.2693 B( 15-N , 16-C ) :   0.9324 B( 15-N , 17-H ) :   0.7972
B( 15-N , 18-H ) :   0.8224 B( 15-N , 22-H ) :   0.8658 B( 16-C , 19-H ) :   0.9702
B( 16-C , 20-H ) :   0.9686 B( 16-C , 21-H ) :   0.9711 B( 23-Cl, 25-Pb) :   0.2653
B( 23-Cl, 28-H ) :   0.1358 B( 23-Cl, 60-H ) :   0.2280 B( 24-Cl, 25-Pb) :   0.1332
B( 24-Cl, 33-H ) :   0.1926 B( 24-Cl, 58-H ) :   0.2582 B( 25-Pb, 34-Cl) :   0.5089
B( 25-Pb, 40-Cl) :   0.3271 B( 25-Pb, 44-Cl) :   0.2166 B( 26-N , 27-C ) :   0.9255
B( 26-N , 28-H ) :   0.8262 B( 26-N , 29-H ) :   0.8627 B( 26-N , 33-H ) :   0.8119
B( 27-C , 30-H ) :   0.9701 B( 27-C , 31-H ) :   0.9690 B( 27-C , 32-H ) :   0.9656
B( 34-Cl, 36-H ) :   0.1795 B( 35-H , 38-C ) :   0.9750 B( 36-H , 39-N ) :   0.8142
B( 37-H , 38-C ) :   0.9743 B( 38-C , 39-N ) :   0.9324 B( 38-C , 43-H ) :   0.9747
B( 39-N , 41-H ) :   0.7736 B( 39-N , 42-H ) :   0.8079 B( 40-Cl, 41-H ) :   0.2432
B( 42-H , 44-Cl) :   0.1782 B( 44-Cl, 54-H ) :   0.1588 B( 45-H , 47-C ) :   0.9743
B( 46-H , 49-N ) :   0.7860 B( 47-C , 48-H ) :   0.9752 B( 47-C , 49-N ) :   0.9371
B( 47-C , 51-H ) :   0.9745 B( 49-N , 50-H ) :   0.7910 B( 49-N , 52-H ) :   0.8175
B( 53-H , 55-C ) :   0.9756 B( 54-H , 57-N ) :   0.8240 B( 55-C , 56-H ) :   0.9747
B( 55-C , 57-N ) :   0.9360 B( 55-C , 59-H ) :   0.9749 B( 57-N , 58-H ) :   0.7680
B( 57-N , 60-H ) :   0.7916

MP2 TOTAL ENERGY:    -6025.866220108 Eh
Dispersion correction           -0.080276187
FINAL SINGLE POINT ENERGY     -6025.946496294328

DIPOLE MOMENT
-------------
                                X             Y             Z
Electronic contribution:    -24.06273       6.99708      25.13828
Nuclear contribution   :     25.80881      -7.28150     -26.95327
                        -----------------------------------------
Total Dipole Moment    :      1.74608      -0.28442      -1.81499
                        -----------------------------------------
Magnitude (a.u.)       :      2.53454
Magnitude (Debye)      :      6.44228

                             ****ORCA TERMINATED NORMALLY****
TOTAL RUN TIME: 0 days 1 hours 37 minutes 52 seconds 14 msec
