                         Program Version 3.0.3 - RELEASE   -
|  1> ! RIJCOSX RI-B2PLYP D3BJ def2-TZVP ECP{def2-TZVP} TIGHTSCF Grid5 FinalGrid6 SlowConv MORead
|  2> %method
|  3>  RunTyp Gradient
|  4>  end
|  5> %maxcore 1000
|  6> %moinp "previous.gbw"
|  7> *xyz 0 1
|  8> C 2.905719 3.576013 2.873338
|  9> N 2.134625 2.614408 2.046990
| 10> H 3.548796 3.021424 3.560517
| 11> H 2.209179 4.197444 3.440826
| 12> H 3.515705 4.204875 2.220874
| 13> H 1.516852 1.975028 2.601630
| 14> H 2.717740 1.973704 1.464858
| 15> H 1.486857 3.059076 1.361735
| 16> Pb 1.027263 0.131547 0.209487
| 17> Cl 0.729118 0.268387 0.089874
| 18> Cl -0.152002 2.735046 -0.108798
| 19> Cl 0.501220 0.320768 2.851419
| 20> *
| 21>
| 22>                          ****END OF INPUT****

CARTESIAN COORDINATES (ANGSTROEM)
---------------------------------
  C      2.905719    3.576013    2.873338
  N      2.134625    2.614408    2.046990
  H      3.548796    3.021424    3.560517
  H      2.209179    4.197444    3.440826
  H      3.515705    4.204875    2.220874
  H      1.516852    1.975028    2.601630
  H      2.717740    1.973704    1.464858
  H      1.486857    3.059076    1.361735
  Pb     1.027263    0.131547    0.209487
  Cl     0.729118    0.268387    0.089874
  Cl    -0.152002    2.735046   -0.108798
  Cl     0.501220    0.320768    2.851419

 Total Charge           Charge          ....    0
 Multiplicity           Mult            ....    1
 Number of Electrons    NEL             ....   92
 Basis Dimension        Dim             ....  259

ORBITAL ENERGIES
----------------

  NO   OCC          E(Eh)            E(eV)
   0   2.0000    -112.033808     -3048.5949
   1   2.0000    -102.833290     -2798.2361
   2   2.0000    -102.797629     -2797.2657
   3   2.0000     -15.049870      -409.5278
   4   2.0000     -15.040393      -409.2699
   5   2.0000     -15.034168      -409.1005
   6   2.0000     -14.974197      -407.4686
   7   2.0000     -10.716968      -291.6235
   8   2.0000      -9.842234      -267.8208
   9   2.0000      -9.806199      -266.8402
  10   2.0000      -9.460943      -257.4453
  11   2.0000      -7.478400      -203.4976
  12   2.0000      -7.478330      -203.4957
  13   2.0000      -7.477424      -203.4710
  14   2.0000      -7.442496      -202.5206
  15   2.0000      -7.441949      -202.5057
  16   2.0000      -7.441688      -202.4986
  17   2.0000      -6.076864      -165.3599
  18   2.0000      -5.373023      -146.2074
  19   2.0000      -5.370421      -146.1366
  20   2.0000      -3.376981       -91.8923
  21   2.0000      -2.750382       -74.8417
  22   2.0000      -2.736211       -74.4561
  23   2.0000      -2.253040       -61.3083
  24   2.0000      -2.251945       -61.2785
  25   2.0000      -1.717691       -46.7407
  26   2.0000      -1.151302       -31.3285
  27   2.0000      -0.886603       -24.1257
  28   2.0000      -0.864285       -23.5184
  29   2.0000      -0.830170       -22.5901
  30   2.0000      -0.717117       -19.5138
  31   2.0000      -0.705725       -19.2037
  32   2.0000      -0.703065       -19.1314
  33   2.0000      -0.676487       -18.4082
  34   2.0000      -0.672941       -18.3116
  35   2.0000      -0.607955       -16.5433
  36   2.0000      -0.528320       -14.3763
  37   2.0000      -0.526874       -14.3370
  38   2.0000      -0.352331        -9.5874
  39   2.0000      -0.347920        -9.4674
  40   2.0000      -0.340368        -9.2619
  41   2.0000      -0.326775        -8.8920
  42   2.0000      -0.313569        -8.5326
  43   2.0000      -0.303997        -8.2722
  44   2.0000      -0.180276        -4.9056
  45   2.0000      -0.175752        -4.7825
  46   0.0000       0.002611         0.0710
  47   0.0000       0.022692         0.6175
  48   0.0000       0.033992         0.9250
  49   0.0000       0.050821         1.3829
  50   0.0000       0.082721         2.2510

Dispersion correction            ...

MULLIKEN ATOMIC CHARGES
-----------------------
   0 C :   -0.277349
   1 N :   -0.339776
   2 H :    0.163284
   3 H :    0.172646
   4 H :    0.160447
   5 H :    0.298611
   6 H :    0.290434
   7 H :    0.274061
   8 Pb:   -4.161100
   9 Cl:    4.685812
  10 Cl:   -0.679684
  11 Cl:   -0.587387
Sum of atomic charges:    0.0000000

LOEWDIN ATOMIC CHARGES
----------------------
   0 C :   -0.284859
   1 N :    0.077330
   2 H :    0.128060
   3 H :    0.133462
   4 H :    0.126592
   5 H :    0.136813
   6 H :    0.202057
   7 H :    0.159077
   8 Pb:    4.528667
   9 Cl:   -4.462193
  10 Cl:   -0.467416
  11 Cl:   -0.277590

  Mayer bond orders larger than 0.1
B(  0-C ,  1-N ) :   0.8765 B(  0-C ,  2-H ) :   0.9516 B(  0-C ,  3-H ) :   0.9480
B(  0-C ,  4-H ) :   0.9506 B(  1-N ,  5-H ) :   0.7458 B(  1-N ,  6-H ) :   0.8814
B(  1-N ,  7-H ) :   0.7817 B(  5-H , 11-Cl) :   0.2261 B(  7-H , 10-Cl) :   0.2080
B(  8-Pb,  9-Cl) :  -8.0900 B(  8-Pb, 10-Cl) :   0.4328 B(  8-Pb, 11-Cl) :   0.3788
B(  9-Cl, 11-Cl) :   0.1297

MP2 TOTAL ENERGY:    -1477.981833531 Eh
Dispersion correction           -0.014903661
FINAL SINGLE POINT ENERGY     -1477.996737191853

DIPOLE MOMENT
-------------
                                X             Y             Z
Electronic contribution:      2.35977     -99.35597     -74.75000
Nuclear contribution   :      0.37364      99.85676      75.48845
                        -----------------------------------------
Total Dipole Moment    :      2.73342       0.50079       0.73845
                        -----------------------------------------
Magnitude (a.u.)       :      2.87536
Magnitude (Debye)      :      7.30858

                             ****ORCA TERMINATED NORMALLY****
TOTAL RUN TIME: 0 days 0 hours 35 minutes 4 seconds 726 msec
