                         Program Version 3.0.3 - RELEASE   -
|  1> ! PW6B95 def2-TZVP GCP(DFT/TZ) ECP{def2-TZVP} Grid7 MORead
|  2> %pal nprocs 2 end
|  3> %method
|  4>  RunTyp Gradient
|  5>  end
|  6> %maxcore 2000
|  7> %moinp "previous.gbw"
|  8> *xyz 0 1
|  9> Pb 1.385297 0.055312 1.866619
| 10> Cl -0.270363 1.592921 2.344643
| 11> Cl 3.496915 1.280881 2.343441
| 12> Cl 1.429327 0.852671 -0.695677
| 13> Cs 1.715400 3.816867 0.880111
| 14> *
| 15>
| 16>                          ****END OF INPUT****

CARTESIAN COORDINATES (ANGSTROEM)
---------------------------------
  Pb     1.385297    0.055312    1.866619
  Cl    -0.270363    1.592921    2.344643
  Cl     3.496915    1.280881    2.343441
  Cl     1.429327    0.852671   -0.695677
  Cs     1.715400    3.816867    0.880111

 Total Charge           Charge          ....    0
 Multiplicity           Mult            ....    1
 Number of Electrons    NEL             ....   82
 Basis Dimension        Dim             ....  190

ORBITAL ENERGIES
----------------

  NO   OCC          E(Eh)            E(eV)
   0   2.0000    -101.887754     -2772.5067
   1   2.0000    -101.867820     -2771.9643
   2   2.0000    -101.846913     -2771.3954
   3   2.0000      -9.531226      -259.3579
   4   2.0000      -9.509218      -258.7590
   5   2.0000      -9.487254      -258.1613
   6   2.0000      -7.260665      -197.5727
   7   2.0000      -7.258017      -197.5007
   8   2.0000      -7.257715      -197.4925
   9   2.0000      -7.238705      -196.9752
  10   2.0000      -7.236265      -196.9088
  11   2.0000      -7.235944      -196.9000
  12   2.0000      -7.216744      -196.3776
  13   2.0000      -7.214552      -196.3179
  14   2.0000      -7.214035      -196.3039
  15   2.0000      -5.546636      -150.9316
  16   2.0000      -3.371316       -91.7382
  17   2.0000      -3.370166       -91.7069
  18   2.0000      -3.369441       -91.6872
  19   2.0000      -1.085915       -29.5493
  20   2.0000      -0.890634       -24.2354
  21   2.0000      -0.871753       -23.7216
  22   2.0000      -0.862987       -23.4831
  23   2.0000      -0.862692       -23.4750
  24   2.0000      -0.861892       -23.4533
  25   2.0000      -0.805028       -21.9059
  26   2.0000      -0.773473       -21.0473
  27   2.0000      -0.751784       -20.4571
  28   2.0000      -0.558462       -15.1965
  29   2.0000      -0.556646       -15.1471
  30   2.0000      -0.555566       -15.1177
  31   2.0000      -0.506420       -13.7804
  32   2.0000      -0.354537        -9.6474
  33   2.0000      -0.342139        -9.3101
  34   2.0000      -0.337458        -9.1827
  35   2.0000      -0.312636        -8.5073
  36   2.0000      -0.306103        -8.3295
  37   2.0000      -0.298523        -8.1232
  38   2.0000      -0.281802        -7.6682
  39   2.0000      -0.274531        -7.4704
  40   2.0000      -0.255563        -6.9542
  41   0.0000      -0.041834        -1.1384
  42   0.0000      -0.017181        -0.4675
  43   0.0000      -0.005844        -0.1590
  44   0.0000      -0.004007        -0.1090
  45   0.0000      -0.002149        -0.0585

MULLIKEN ATOMIC CHARGES
-----------------------
   0 Pb:    0.699393
   1 Cl:   -0.452099
   2 Cl:   -0.491932
   3 Cl:   -0.535242
   4 Cs:    0.779879
Sum of atomic charges:   -0.0000000

LOEWDIN ATOMIC CHARGES
----------------------
   0 Pb:   -0.069921
   1 Cl:    0.042429
   2 Cl:   -0.084547
   3 Cl:   -0.194447
   4 Cs:    0.306487

  Mayer bond orders larger than 0.1
B(  0-Pb,  1-Cl) :   0.7850 B(  0-Pb,  2-Cl) :   0.7061 B(  0-Pb,  3-Cl) :   0.6126
B(  1-Cl,  4-Cs) :   0.1195 B(  2-Cl,  4-Cs) :   0.1356 B(  3-Cl,  4-Cs) :   0.1701

FINAL SINGLE POINT ENERGY     -1595.067457600721

DIPOLE MOMENT
-------------
                                X             Y             Z
Electronic contribution:     -0.45517      41.74777       3.34079
Nuclear contribution   :      0.29708     -38.96844      -3.13236
                        -----------------------------------------
Total Dipole Moment    :     -0.15808       2.77933       0.20844
                        -----------------------------------------
Magnitude (a.u.)       :      2.79162
Magnitude (Debye)      :      7.09573

                             ****ORCA TERMINATED NORMALLY****
TOTAL RUN TIME: 0 days 0 hours 13 minutes 14 seconds 169 msec
