                         Program Version 3.0.3 - RELEASE   -
|  1> ! PW6B95 def2-TZVP GCP(DFT/TZ) ECP{def2-TZVP} Grid7 MORead
|  2> %pal nprocs 2 end
|  3> %method
|  4>  RunTyp Gradient
|  5>  end
|  6> %maxcore 2000
|  7> %moinp "previous.gbw"
|  8> *xyz 0 1
|  9> Pb 0.447725 0.295704 0.427748
| 10> Cl 3.036957 0.617115 0.488592
| 11> Cl -0.018737 2.764993 -0.264783
| 12> Cl 0.269036 0.878054 2.932950
| 13> Cs 3.397305 4.110219 3.044526
| 14> *
| 15>
| 16>                          ****END OF INPUT****

CARTESIAN COORDINATES (ANGSTROEM)
---------------------------------
  Pb     0.447725    0.295704    0.427748
  Cl     3.036957    0.617115    0.488592
  Cl    -0.018737    2.764993   -0.264783
  Cl     0.269036    0.878054    2.932950
  Cs     3.397305    4.110219    3.044526

 Total Charge           Charge          ....    0
 Multiplicity           Mult            ....    1
 Number of Electrons    NEL             ....   82
 Basis Dimension        Dim             ....  190

ORBITAL ENERGIES
----------------

  NO   OCC          E(Eh)            E(eV)
   0   2.0000    -101.831052     -2770.9638
   1   2.0000    -101.830507     -2770.9490
   2   2.0000    -101.822920     -2770.7425
   3   2.0000      -9.471337      -257.7282
   4   2.0000      -9.470949      -257.7176
   5   2.0000      -9.463098      -257.5040
   6   2.0000      -7.200958      -195.9480
   7   2.0000      -7.200639      -195.9394
   8   2.0000      -7.198488      -195.8808
   9   2.0000      -7.198149      -195.8716
  10   2.0000      -7.198026      -195.8683
  11   2.0000      -7.197714      -195.8597
  12   2.0000      -7.192859      -195.7276
  13   2.0000      -7.190110      -195.6528
  14   2.0000      -7.189904      -195.6472
  15   2.0000      -5.527917      -150.4223
  16   2.0000      -3.351943       -91.2110
  17   2.0000      -3.351542       -91.2001
  18   2.0000      -3.350194       -91.1634
  19   2.0000      -1.139754       -31.0143
  20   2.0000      -0.848784       -23.0966
  21   2.0000      -0.847725       -23.0678
  22   2.0000      -0.841904       -22.9094
  23   2.0000      -0.841576       -22.9005
  24   2.0000      -0.840462       -22.8701
  25   2.0000      -0.748922       -20.3792
  26   2.0000      -0.730699       -19.8833
  27   2.0000      -0.724867       -19.7246
  28   2.0000      -0.609168       -16.5763
  29   2.0000      -0.608804       -16.5664
  30   2.0000      -0.605483       -16.4760
  31   2.0000      -0.469691       -12.7809
  32   2.0000      -0.298060        -8.1106
  33   2.0000      -0.294954        -8.0261
  34   2.0000      -0.284733        -7.7480
  35   2.0000      -0.267365        -7.2754
  36   2.0000      -0.265760        -7.2317
  37   2.0000      -0.252327        -6.8662
  38   2.0000      -0.249118        -6.7789
  39   2.0000      -0.246685        -6.7126
  40   2.0000      -0.236718        -6.4414
  41   0.0000      -0.074498        -2.0272
  42   0.0000      -0.022992        -0.6257
  43   0.0000      -0.022924        -0.6238
  44   0.0000      -0.021512        -0.5854
  45   0.0000      -0.012235        -0.3329

MULLIKEN ATOMIC CHARGES
-----------------------
   0 Pb:    0.777560
   1 Cl:   -0.557296
   2 Cl:   -0.543097
   3 Cl:   -0.544180
   4 Cs:    0.867012
Sum of atomic charges:   -0.0000000

LOEWDIN ATOMIC CHARGES
----------------------
   0 Pb:    0.028320
   1 Cl:   -0.232782
   2 Cl:   -0.242930
   3 Cl:   -0.216619
   4 Cs:    0.664011

  Mayer bond orders larger than 0.1
B(  0-Pb,  1-Cl) :   0.6503 B(  0-Pb,  2-Cl) :   0.7103 B(  0-Pb,  3-Cl) :   0.6855
B(  1-Cl,  4-Cs) :   0.1037

FINAL SINGLE POINT ENERGY     -1595.048208817561

DIPOLE MOMENT
-------------
                                X             Y             Z
Electronic contribution:     50.56319      47.72125      41.85649
Nuclear contribution   :    -47.36185     -44.22675     -39.06901
                        -----------------------------------------
Total Dipole Moment    :      3.20133       3.49450       2.78748
                        -----------------------------------------
Magnitude (a.u.)       :      5.49819
Magnitude (Debye)      :     13.97529

                             ****ORCA TERMINATED NORMALLY****
TOTAL RUN TIME: 0 days 0 hours 12 minutes 33 seconds 221 msec
