                         Program Version 3.0.3 - RELEASE   -
|  1> ! RIJCOSX RI-B2PLYP D3BJ def2-TZVP ECP{def2-TZVP} TIGHTSCF Grid5 FinalGrid6 SlowConv MORead
|  2> %method
|  3>  RunTyp Gradient
|  4>  end
|  5> %maxcore 1000
|  6> %moinp "previous.gbw"
|  7> *xyz 0 1
|  8> C 2.905719 3.576013 2.873338
|  9> N 2.134625 2.614408 2.046990
| 10> H 3.548796 3.021424 3.560517
| 11> H 2.209179 4.197444 3.440826
| 12> H 3.515705 4.204875 2.220874
| 13> H 1.516852 1.975028 2.601630
| 14> H 2.717740 1.973704 1.464858
| 15> H 1.486857 3.059076 1.361735
| 16> Pb -0.353845 0.131547 0.209487
| 17> Cl 3.101655 0.268387 0.089874
| 18> Cl -2.268480 2.735046 -0.108798
| 19> Cl 2.485334 0.320768 2.851419
| 20> *
| 21>
| 22>                          ****END OF INPUT****

CARTESIAN COORDINATES (ANGSTROEM)
---------------------------------
  C      2.905719    3.576013    2.873338
  N      2.134625    2.614408    2.046990
  H      3.548796    3.021424    3.560517
  H      2.209179    4.197444    3.440826
  H      3.515705    4.204875    2.220874
  H      1.516852    1.975028    2.601630
  H      2.717740    1.973704    1.464858
  H      1.486857    3.059076    1.361735
  Pb    -0.353845    0.131547    0.209487
  Cl     3.101655    0.268387    0.089874
  Cl    -2.268480    2.735046   -0.108798
  Cl     2.485334    0.320768    2.851419

 Total Charge           Charge          ....    0
 Multiplicity           Mult            ....    1
 Number of Electrons    NEL             ....   92
 Basis Dimension        Dim             ....  259

ORBITAL ENERGIES
----------------

  NO   OCC          E(Eh)            E(eV)
   0   2.0000    -102.852200     -2798.7507
   1   2.0000    -102.821571     -2797.9172
   2   2.0000    -102.786152     -2796.9534
   3   2.0000     -14.949982      -406.8097
   4   2.0000     -10.693563      -290.9866
   5   2.0000      -9.855634      -268.1854
   6   2.0000      -9.826592      -267.3952
   7   2.0000      -9.795248      -266.5423
   8   2.0000      -7.493282      -203.9026
   9   2.0000      -7.490854      -203.8365
  10   2.0000      -7.490781      -203.8345
  11   2.0000      -7.464195      -203.1111
  12   2.0000      -7.461978      -203.0507
  13   2.0000      -7.461203      -203.0296
  14   2.0000      -7.432094      -202.2375
  15   2.0000      -7.430500      -202.1942
  16   2.0000      -7.430117      -202.1838
  17   2.0000      -5.931098      -161.3934
  18   2.0000      -3.703340      -100.7730
  19   2.0000      -3.701707      -100.7286
  20   2.0000      -3.697906      -100.6251
  21   2.0000      -1.129520       -30.7358
  22   2.0000      -1.089631       -29.6504
  23   2.0000      -1.089548       -29.6481
  24   2.0000      -1.085142       -29.5282
  25   2.0000      -1.083518       -29.4840
  26   2.0000      -1.082532       -29.4572
  27   2.0000      -0.855349       -23.2752
  28   2.0000      -0.847150       -23.0521
  29   2.0000      -0.829095       -22.5608
  30   2.0000      -0.807269       -21.9669
  31   2.0000      -0.653694       -17.7879
  32   2.0000      -0.650319       -17.6961
  33   2.0000      -0.628924       -17.1139
  34   2.0000      -0.586181       -15.9508
  35   2.0000      -0.506393       -13.7797
  36   2.0000      -0.503155       -13.6915
  37   2.0000      -0.348364        -9.4795
  38   2.0000      -0.342888        -9.3305
  39   2.0000      -0.332931        -9.0595
  40   2.0000      -0.331518        -9.0211
  41   2.0000      -0.317954        -8.6520
  42   2.0000      -0.315208        -8.5773
  43   2.0000      -0.290478        -7.9043
  44   2.0000      -0.283003        -7.7009
  45   2.0000      -0.246483        -6.7071
  46   0.0000      -0.146296        -3.9809
  47   0.0000      -0.139166        -3.7869
  48   0.0000      -0.097138        -2.6433
  49   0.0000       0.035560         0.9676
  50   0.0000       0.066895         1.8203

Dispersion correction            ...

MULLIKEN ATOMIC CHARGES
-----------------------
   0 C :   -0.274743
   1 N :   -0.256204
   2 H :    0.179381
   3 H :    0.149754
   4 H :    0.152660
   5 H :    0.246665
   6 H :    0.297744
   7 H :    0.241087
   8 Pb:    0.892713
   9 Cl:   -0.491202
  10 Cl:   -0.514152
  11 Cl:   -0.623703
Sum of atomic charges:   -0.0000000

LOEWDIN ATOMIC CHARGES
----------------------
   0 C :   -0.296977
   1 N :    0.033580
   2 H :    0.131219
   3 H :    0.123091
   4 H :    0.124010
   5 H :    0.140459
   6 H :    0.150874
   7 H :    0.178985
   8 Pb:    0.717638
   9 Cl:   -0.412927
  10 Cl:   -0.426896
  11 Cl:   -0.463055

  Mayer bond orders larger than 0.1
B(  0-C ,  1-N ) :   0.8850 B(  0-C ,  2-H ) :   0.9382 B(  0-C ,  3-H ) :   0.9528
B(  0-C ,  4-H ) :   0.9513 B(  1-N ,  5-H ) :   0.7707 B(  1-N ,  6-H ) :   0.7913
B(  1-N ,  7-H ) :   0.8719 B(  5-H , 11-Cl) :   0.2286 B(  6-H ,  9-Cl) :   0.1758
B(  8-Pb,  9-Cl) :   0.6305 B(  8-Pb, 10-Cl) :   0.7427 B(  8-Pb, 11-Cl) :   0.3278

MP2 TOTAL ENERGY:    -1669.410579622 Eh
Dispersion correction           -0.012031754
FINAL SINGLE POINT ENERGY     -1669.422611375632

DIPOLE MOMENT
-------------
                                X             Y             Z
Electronic contribution:   -119.90231     -99.49236     -75.53208
Nuclear contribution   :    118.91767      99.85676      75.48845
                        -----------------------------------------
Total Dipole Moment    :     -0.98464       0.36440      -0.04363
                        -----------------------------------------
Magnitude (a.u.)       :      1.05081
Magnitude (Debye)      :      2.67096

                             ****ORCA TERMINATED NORMALLY****
TOTAL RUN TIME: 0 days 0 hours 21 minutes 46 seconds 852 msec
