                         Program Version 3.0.3 - RELEASE   -
|  1> ! RIJCOSX RI-B2PLYP D3BJ def2-TZVP ECP{def2-TZVP} TIGHTSCF Grid5 FinalGrid6 MORead
|  2> %method
|  3>  RunTyp Gradient
|  4>  end
|  5> %maxcore 1000
|  6> %moinp "previous.gbw"
|  7> *xyz -2 1
|  8> C 2.821971 3.493173 2.716929
|  9> N 2.031893 2.485380 2.005967
| 10> H 3.493737 3.003675 3.431461
| 11> H 2.156449 4.174155 3.259759
| 12> H 3.419280 4.070497 2.001994
| 13> H 1.424368 1.881241 2.639320
| 14> H 2.617127 1.787701 1.451958
| 15> H 1.353302 2.890520 1.291746
| 16> Pb 0.112092 -0.008235 0.254288
| 17> Cl 3.186425 0.284579 0.328021
| 18> Cl 0.012832 3.048107 -0.145907
| 19> Cl 0.157261 0.475133 3.259834
| 20> Cl -2.985534 -0.340635 0.200139
| 21> Cl 0.040981 -0.494421 -2.871440
| 22> Cl 0.182132 -3.124694 0.572689
| 23> N -1.884966 -2.527607 -1.578982
| 24> C -2.664881 -3.549172 -2.281400
| 25> H -2.474954 -1.829497 -1.031708
| 26> H -1.279571 -1.925402 -2.215561
| 27> H -3.259633 -4.123288 -1.561779
| 28> H -1.991792 -4.230944 -2.813775
| 29> H -3.338231 -3.073756 -3.003955
| 30> H -1.204879 -2.923566 -0.859634
| 31> *
| 32>
| 33>                          ****END OF INPUT****

CARTESIAN COORDINATES (ANGSTROEM)
---------------------------------
  C      2.821971    3.493173    2.716929
  N      2.031893    2.485380    2.005967
  H      3.493737    3.003675    3.431461
  H      2.156449    4.174155    3.259759
  H      3.419280    4.070497    2.001994
  H      1.424368    1.881241    2.639320
  H      2.617127    1.787701    1.451958
  H      1.353302    2.890520    1.291746
  Pb     0.112092   -0.008235    0.254288
  Cl     3.186425    0.284579    0.328021
  Cl     0.012832    3.048107   -0.145907
  Cl     0.157261    0.475133    3.259834
  Cl    -2.985534   -0.340635    0.200139
  Cl     0.040981   -0.494421   -2.871440
  Cl     0.182132   -3.124694    0.572689
  N     -1.884966   -2.527607   -1.578982
  C     -2.664881   -3.549172   -2.281400
  H     -2.474954   -1.829497   -1.031708
  H     -1.279571   -1.925402   -2.215561
  H     -3.259633   -4.123288   -1.561779
  H     -1.991792   -4.230944   -2.813775
  H     -3.338231   -3.073756   -3.003955
  H     -1.204879   -2.923566   -0.859634

 Total Charge           Charge          ....   -2
 Multiplicity           Mult            ....    1
 Number of Electrons    NEL             ....  164
 Basis Dimension        Dim             ....  468

ORBITAL ENERGIES
----------------

  NO   OCC          E(Eh)            E(eV)
   0   2.0000    -102.586865     -2791.5305
   1   2.0000    -102.584536     -2791.4671
   2   2.0000    -102.584409     -2791.4637
   3   2.0000    -102.581321     -2791.3796
   4   2.0000    -102.580430     -2791.3554
   5   2.0000    -102.576377     -2791.2451
   6   2.0000     -14.694735      -399.8641
   7   2.0000     -14.690607      -399.7517
   8   2.0000     -10.491828      -285.4972
   9   2.0000     -10.490951      -285.4733
  10   2.0000      -9.593509      -261.0527
  11   2.0000      -9.591190      -260.9896
  12   2.0000      -9.591107      -260.9873
  13   2.0000      -9.587855      -260.8988
  14   2.0000      -9.586893      -260.8726
  15   2.0000      -9.582646      -260.7570
  16   2.0000      -7.229951      -196.7370
  17   2.0000      -7.229657      -196.7290
  18   2.0000      -7.228972      -196.7103
  19   2.0000      -7.227602      -196.6731
  20   2.0000      -7.227495      -196.6701
  21   2.0000      -7.227372      -196.6668
  22   2.0000      -7.227307      -196.6650
  23   2.0000      -7.226659      -196.6474
  24   2.0000      -7.226569      -196.6449
  25   2.0000      -7.224268      -196.5823
  26   2.0000      -7.224053      -196.5765
  27   2.0000      -7.223348      -196.5573
  28   2.0000      -7.223294      -196.5558
  29   2.0000      -7.223116      -196.5510
  30   2.0000      -7.222396      -196.5314
  31   2.0000      -7.219053      -196.4404
  32   2.0000      -7.218866      -196.4353
  33   2.0000      -7.218194      -196.4170
  34   2.0000      -5.567820      -151.5081
  35   2.0000      -3.338376       -90.8418
  36   2.0000      -3.337769       -90.8253
  37   2.0000      -3.337613       -90.8211
  38   2.0000      -0.881372       -23.9834
  39   2.0000      -0.880091       -23.9485
  40   2.0000      -0.726354       -19.7651
  41   2.0000      -0.726237       -19.7619
  42   2.0000      -0.725405       -19.7393
  43   2.0000      -0.724029       -19.7018
  44   2.0000      -0.723925       -19.6990
  45   2.0000      -0.634970       -17.2784
  46   2.0000      -0.633625       -17.2418
  47   2.0000      -0.604513       -16.4496
  48   2.0000      -0.603329       -16.4174
  49   2.0000      -0.598566       -16.2878
  50   2.0000      -0.597973       -16.2717
  51   2.0000      -0.595717       -16.2103
  52   2.0000      -0.590616       -16.0715
  53   2.0000      -0.411884       -11.2079
  54   2.0000      -0.411679       -11.2024
  55   2.0000      -0.411060       -11.1855
  56   2.0000      -0.410828       -11.1792
  57   2.0000      -0.364000        -9.9049
  58   2.0000      -0.363307        -9.8861
  59   2.0000      -0.293848        -7.9960
  60   2.0000      -0.291189        -7.9237
  61   2.0000      -0.290994        -7.9184
  62   2.0000      -0.290937        -7.9168
  63   2.0000      -0.290828        -7.9138
  64   2.0000      -0.114844        -3.1251
  65   2.0000      -0.110004        -2.9934
  66   2.0000      -0.109471        -2.9789
  67   2.0000      -0.098767        -2.6876
  68   2.0000      -0.089568        -2.4373
  69   2.0000      -0.087943        -2.3930
  70   2.0000      -0.087573        -2.3830
  71   2.0000      -0.084452        -2.2981
  72   2.0000      -0.084137        -2.2895
  73   2.0000      -0.082932        -2.2567
  74   2.0000      -0.081910        -2.2289
  75   2.0000      -0.080115        -2.1800
  76   2.0000      -0.078326        -2.1314
  77   2.0000      -0.077790        -2.1168
  78   2.0000      -0.076920        -2.0931
  79   2.0000      -0.076054        -2.0695
  80   2.0000      -0.070340        -1.9141
  81   2.0000      -0.047912        -1.3038
  82   0.0000       0.240904         6.5553
  83   0.0000       0.241006         6.5581
  84   0.0000       0.252311         6.8657
  85   0.0000       0.254154         6.9159
  86   0.0000       0.256736         6.9861

Dispersion correction            ...

MULLIKEN ATOMIC CHARGES
-----------------------
   0 C :   -0.269833
   1 N :   -0.296015
   2 H :    0.119070
   3 H :    0.118138
   4 H :    0.120291
   5 H :    0.260117
   6 H :    0.265224
   7 H :    0.262481
   8 Pb:    1.031217
   9 Cl:   -0.693834
  10 Cl:   -0.692955
  11 Cl:   -0.687392
  12 Cl:   -0.701998
  13 Cl:   -0.713252
  14 Cl:   -0.705798
  15 N :   -0.282593
  16 C :   -0.269175
  17 H :    0.260041
  18 H :    0.254174
  19 H :    0.121076
  20 H :    0.120431
  21 H :    0.118665
  22 H :    0.261920
Sum of atomic charges:   -2.0000000

LOEWDIN ATOMIC CHARGES
----------------------
   0 C :   -0.339730
   1 N :    0.030705
   2 H :    0.112208
   3 H :    0.111746
   4 H :    0.112609
   5 H :    0.133585
   6 H :    0.129111
   7 H :    0.130270
   8 Pb:    0.191084
   9 Cl:   -0.496700
  10 Cl:   -0.496354
  11 Cl:   -0.485496
  12 Cl:   -0.514263
  13 Cl:   -0.544541
  14 Cl:   -0.522724
  15 N :    0.037536
  16 C :   -0.337775
  17 H :    0.134480
  18 H :    0.140665
  19 H :    0.112966
  20 H :    0.112747
  21 H :    0.112074
  22 H :    0.135796

  Mayer bond orders larger than 0.1
B(  0-C ,  1-N ) :   0.9395 B(  0-C ,  2-H ) :   0.9608 B(  0-C ,  3-H ) :   0.9604
B(  0-C ,  4-H ) :   0.9602 B(  1-N ,  5-H ) :   0.7500 B(  1-N ,  6-H ) :   0.7399
B(  1-N ,  7-H ) :   0.7439 B(  5-H , 11-Cl) :   0.2589 B(  6-H ,  9-Cl) :   0.2696
B(  7-H , 10-Cl) :   0.2657 B(  8-Pb,  9-Cl) :   0.2730 B(  8-Pb, 10-Cl) :   0.2774
B(  8-Pb, 11-Cl) :   0.2942 B(  8-Pb, 12-Cl) :   0.2657 B(  8-Pb, 13-Cl) :   0.2537
B(  8-Pb, 14-Cl) :   0.2599 B( 12-Cl, 17-H ) :   0.2638 B( 13-Cl, 18-H ) :   0.2599
B( 14-Cl, 22-H ) :   0.2639 B( 15-N , 16-C ) :   0.9405 B( 15-N , 17-H ) :   0.7473
B( 15-N , 18-H ) :   0.7560 B( 15-N , 22-H ) :   0.7473 B( 16-C , 19-H ) :   0.9597
B( 16-C , 20-H ) :   0.9599 B( 16-C , 21-H ) :   0.9604

MP2 TOTAL ENERGY:    -3146.563319540 Eh
Dispersion correction           -0.027620039
FINAL SINGLE POINT ENERGY     -3146.590939579046

DIPOLE MOMENT
-------------
                                X             Y             Z
Electronic contribution:      1.88692       1.62006       3.19292
Nuclear contribution   :     -1.88823      -1.50550      -2.97770
                        -----------------------------------------
Total Dipole Moment    :     -0.00131       0.11457       0.21522
                        -----------------------------------------
Magnitude (a.u.)       :      0.24382
Magnitude (Debye)      :      0.61973

                             ****ORCA TERMINATED NORMALLY****
TOTAL RUN TIME: 0 days 0 hours 31 minutes 44 seconds 870 msec
