                         Program Version 3.0.3 - RELEASE   -
|  1> ! RIJCOSX RI-B2PLYP D3BJ def2-TZVP ECP{def2-TZVP} TIGHTSCF Grid5 FinalGrid6 MORead
|  2> %method
|  3>  RunTyp Gradient
|  4>  end
|  5> %maxcore 1000
|  6> %moinp "previous.gbw"
|  7> *xyz -2 1
|  8> C 2.821971 3.493173 2.716929
|  9> N 2.031893 2.485380 2.005967
| 10> H 3.493737 3.003675 3.431461
| 11> H 2.156449 4.174155 3.259759
| 12> H 3.419280 4.070497 2.001994
| 13> H 1.424368 1.881241 2.639320
| 14> H 2.617127 1.787701 1.451958
| 15> H 1.353302 2.890520 1.291746
| 16> Pb 0.087665 -0.058263 0.249896
| 17> Cl 3.180665 0.284284 0.292479
| 18> Cl -0.009206 3.015091 -0.165681
| 19> Cl 0.110725 0.513897 3.287868
| 20> Cl -2.987454 -0.308247 0.121877
| 21> Cl -0.009057 -0.525869 -2.843661
| 22> Cl 0.218108 -3.118611 0.573039
| 23> N -1.884966 -2.527607 -1.578982
| 24> C -2.664881 -3.549172 -2.281400
| 25> H -2.474954 -1.829497 -1.031708
| 26> H -1.279571 -1.925402 -2.215561
| 27> H -3.259633 -4.123288 -1.561779
| 28> H -1.991792 -4.230944 -2.813775
| 29> H -3.338231 -3.073756 -3.003955
| 30> H -1.204879 -2.923566 -0.859634
| 31> *
| 32>
| 33>                          ****END OF INPUT****

CARTESIAN COORDINATES (ANGSTROEM)
---------------------------------
  C      2.821971    3.493173    2.716929
  N      2.031893    2.485380    2.005967
  H      3.493737    3.003675    3.431461
  H      2.156449    4.174155    3.259759
  H      3.419280    4.070497    2.001994
  H      1.424368    1.881241    2.639320
  H      2.617127    1.787701    1.451958
  H      1.353302    2.890520    1.291746
  Pb     0.087665   -0.058263    0.249896
  Cl     3.180665    0.284284    0.292479
  Cl    -0.009206    3.015091   -0.165681
  Cl     0.110725    0.513897    3.287868
  Cl    -2.987454   -0.308247    0.121877
  Cl    -0.009057   -0.525869   -2.843661
  Cl     0.218108   -3.118611    0.573039
  N     -1.884966   -2.527607   -1.578982
  C     -2.664881   -3.549172   -2.281400
  H     -2.474954   -1.829497   -1.031708
  H     -1.279571   -1.925402   -2.215561
  H     -3.259633   -4.123288   -1.561779
  H     -1.991792   -4.230944   -2.813775
  H     -3.338231   -3.073756   -3.003955
  H     -1.204879   -2.923566   -0.859634

 Total Charge           Charge          ....   -2
 Multiplicity           Mult            ....    1
 Number of Electrons    NEL             ....  164
 Basis Dimension        Dim             ....  468

ORBITAL ENERGIES
----------------

  NO   OCC          E(Eh)            E(eV)
   0   2.0000    -102.583643     -2791.4429
   1   2.0000    -102.583599     -2791.4416
   2   2.0000    -102.583391     -2791.4360
   3   2.0000    -102.581840     -2791.3938
   4   2.0000    -102.580110     -2791.3467
   5   2.0000    -102.579576     -2791.3322
   6   2.0000     -14.693115      -399.8200
   7   2.0000     -14.691888      -399.7866
   8   2.0000     -10.491670      -285.4929
   9   2.0000     -10.490928      -285.4727
  10   2.0000      -9.590179      -260.9620
  11   2.0000      -9.590059      -260.9588
  12   2.0000      -9.590044      -260.9584
  13   2.0000      -9.588437      -260.9146
  14   2.0000      -9.586642      -260.8658
  15   2.0000      -9.586098      -260.8510
  16   2.0000      -7.226600      -196.6458
  17   2.0000      -7.226484      -196.6426
  18   2.0000      -7.226450      -196.6417
  19   2.0000      -7.226361      -196.6393
  20   2.0000      -7.226244      -196.6361
  21   2.0000      -7.226233      -196.6358
  22   2.0000      -7.225671      -196.6205
  23   2.0000      -7.225559      -196.6175
  24   2.0000      -7.225512      -196.6162
  25   2.0000      -7.224824      -196.5974
  26   2.0000      -7.224648      -196.5927
  27   2.0000      -7.223923      -196.5729
  28   2.0000      -7.223062      -196.5495
  29   2.0000      -7.222832      -196.5433
  30   2.0000      -7.222495      -196.5341
  31   2.0000      -7.222310      -196.5291
  32   2.0000      -7.222131      -196.5242
  33   2.0000      -7.221594      -196.5096
  34   2.0000      -5.566774      -151.4796
  35   2.0000      -3.337334       -90.8135
  36   2.0000      -3.336710       -90.7965
  37   2.0000      -3.336591       -90.7932
  38   2.0000      -0.881026       -23.9739
  39   2.0000      -0.880061       -23.9477
  40   2.0000      -0.725345       -19.7376
  41   2.0000      -0.725244       -19.7349
  42   2.0000      -0.724391       -19.7117
  43   2.0000      -0.722984       -19.6734
  44   2.0000      -0.722933       -19.6720
  45   2.0000      -0.634455       -17.2644
  46   2.0000      -0.633667       -17.2430
  47   2.0000      -0.601841       -16.3769
  48   2.0000      -0.601095       -16.3566
  49   2.0000      -0.599034       -16.3005
  50   2.0000      -0.598012       -16.2727
  51   2.0000      -0.596008       -16.2182
  52   2.0000      -0.593383       -16.1468
  53   2.0000      -0.411701       -11.2029
  54   2.0000      -0.411568       -11.1993
  55   2.0000      -0.410836       -11.1794
  56   2.0000      -0.410654       -11.1745
  57   2.0000      -0.363920        -9.9028
  58   2.0000      -0.363023        -9.8784
  59   2.0000      -0.293184        -7.9779
  60   2.0000      -0.291357        -7.9282
  61   2.0000      -0.291025        -7.9192
  62   2.0000      -0.290609        -7.9079
  63   2.0000      -0.290372        -7.9014
  64   2.0000      -0.114572        -3.1177
  65   2.0000      -0.109401        -2.9770
  66   2.0000      -0.108716        -2.9583
  67   2.0000      -0.097926        -2.6647
  68   2.0000      -0.090067        -2.4508
  69   2.0000      -0.086977        -2.3668
  70   2.0000      -0.086636        -2.3575
  71   2.0000      -0.083189        -2.2637
  72   2.0000      -0.082862        -2.2548
  73   2.0000      -0.082441        -2.2433
  74   2.0000      -0.081710        -2.2235
  75   2.0000      -0.079575        -2.1653
  76   2.0000      -0.079210        -2.1554
  77   2.0000      -0.078768        -2.1434
  78   2.0000      -0.078031        -2.1233
  79   2.0000      -0.075421        -2.0523
  80   2.0000      -0.071651        -1.9497
  81   2.0000      -0.047290        -1.2868
  82   0.0000       0.240716         6.5502
  83   0.0000       0.241289         6.5658
  84   0.0000       0.253442         6.8965
  85   0.0000       0.255365         6.9488
  86   0.0000       0.257538         7.0080

Dispersion correction            ...

MULLIKEN ATOMIC CHARGES
-----------------------
   0 C :   -0.269493
   1 N :   -0.289210
   2 H :    0.118888
   3 H :    0.118878
   4 H :    0.120454
   5 H :    0.259872
   6 H :    0.262680
   7 H :    0.259416
   8 Pb:    1.031196
   9 Cl:   -0.700403
  10 Cl:   -0.698925
  11 Cl:   -0.698908
  12 Cl:   -0.694724
  13 Cl:   -0.701850
  14 Cl:   -0.699589
  15 N :   -0.287933
  16 C :   -0.269574
  17 H :    0.261447
  18 H :    0.259438
  19 H :    0.119881
  20 H :    0.119973
  21 H :    0.119226
  22 H :    0.259260
Sum of atomic charges:   -2.0000000

LOEWDIN ATOMIC CHARGES
----------------------
   0 C :   -0.338996
   1 N :    0.033857
   2 H :    0.112237
   3 H :    0.112029
   4 H :    0.112635
   5 H :    0.135112
   6 H :    0.131880
   7 H :    0.134220
   8 Pb:    0.185422
   9 Cl:   -0.510343
  10 Cl:   -0.509444
  11 Cl:   -0.508185
  12 Cl:   -0.498803
  13 Cl:   -0.517482
  14 Cl:   -0.510321
  15 N :    0.034418
  16 C :   -0.338675
  17 H :    0.131244
  18 H :    0.132666
  19 H :    0.112418
  20 H :    0.112496
  21 H :    0.112313
  22 H :    0.139302

  Mayer bond orders larger than 0.1
B(  0-C ,  1-N ) :   0.9400 B(  0-C ,  2-H ) :   0.9606 B(  0-C ,  3-H ) :   0.9602
B(  0-C ,  4-H ) :   0.9600 B(  1-N ,  5-H ) :   0.7509 B(  1-N ,  6-H ) :   0.7431
B(  1-N ,  7-H ) :   0.7475 B(  5-H , 11-Cl) :   0.2586 B(  6-H ,  9-Cl) :   0.2679
B(  7-H , 10-Cl) :   0.2649 B(  8-Pb,  9-Cl) :   0.2644 B(  8-Pb, 10-Cl) :   0.2693
B(  8-Pb, 11-Cl) :   0.2762 B(  8-Pb, 12-Cl) :   0.2732 B(  8-Pb, 13-Cl) :   0.2602
B(  8-Pb, 14-Cl) :   0.2801 B( 12-Cl, 17-H ) :   0.2679 B( 13-Cl, 18-H ) :   0.2703
B( 14-Cl, 22-H ) :   0.2539 B( 15-N , 16-C ) :   0.9401 B( 15-N , 17-H ) :   0.7432
B( 15-N , 18-H ) :   0.7440 B( 15-N , 22-H ) :   0.7555 B( 16-C , 19-H ) :   0.9599
B( 16-C , 20-H ) :   0.9601 B( 16-C , 21-H ) :   0.9606

MP2 TOTAL ENERGY:    -3146.563722657 Eh
Dispersion correction           -0.027650718
FINAL SINGLE POINT ENERGY     -3146.591373375022

DIPOLE MOMENT
-------------
                                X             Y             Z
Electronic contribution:      0.52355      -3.18888       3.47022
Nuclear contribution   :     -0.57913       3.09151      -3.33593
                        -----------------------------------------
Total Dipole Moment    :     -0.05559      -0.09737       0.13428
                        -----------------------------------------
Magnitude (a.u.)       :      0.17494
Magnitude (Debye)      :      0.44465

                             ****ORCA TERMINATED NORMALLY****
TOTAL RUN TIME: 0 days 0 hours 35 minutes 54 seconds 148 msec
