                         Program Version 3.0.3 - RELEASE   -
|  1> ! PW6B95 def2-TZVP GCP(DFT/TZ) ECP{def2-TZVP} Grid7 MORead
|  2> %pal nprocs 2 end
|  3> %method
|  4>  RunTyp Gradient
|  5>  end
|  6> %maxcore 2000
|  7> %moinp "previous.gbw"
|  8> *xyz 0 1
|  9> Pb 0.514587 0.346659 0.236877
| 10> Cl 3.015449 1.225943 0.728940
| 11> Cl -0.423836 2.871548 0.418891
| 12> Cl 0.110844 -0.054802 2.766532
| 13> Cs 2.919337 3.398421 2.493431
| 14> *
| 15>
| 16>                          ****END OF INPUT****

CARTESIAN COORDINATES (ANGSTROEM)
---------------------------------
  Pb     0.514587    0.346659    0.236877
  Cl     3.015449    1.225943    0.728940
  Cl    -0.423836    2.871548    0.418891
  Cl     0.110844   -0.054802    2.766532
  Cs     2.919337    3.398421    2.493431

 Total Charge           Charge          ....    0
 Multiplicity           Mult            ....    1
 Number of Electrons    NEL             ....   82
 Basis Dimension        Dim             ....  190

ORBITAL ENERGIES
----------------

  NO   OCC          E(Eh)            E(eV)
   0   2.0000    -101.869385     -2772.0069
   1   2.0000    -101.850309     -2771.4878
   2   2.0000    -101.846625     -2771.3876
   3   2.0000      -9.511806      -258.8294
   4   2.0000      -9.490256      -258.2430
   5   2.0000      -9.486216      -258.1331
   6   2.0000      -7.241001      -197.0376
   7   2.0000      -7.238770      -196.9769
   8   2.0000      -7.238723      -196.9757
   9   2.0000      -7.220189      -196.4713
  10   2.0000      -7.217209      -196.3902
  11   2.0000      -7.216950      -196.3832
  12   2.0000      -7.216002      -196.3574
  13   2.0000      -7.213405      -196.2867
  14   2.0000      -7.212952      -196.2744
  15   2.0000      -5.565165      -151.4358
  16   2.0000      -3.389960       -92.2455
  17   2.0000      -3.388357       -92.2019
  18   2.0000      -3.386907       -92.1624
  19   2.0000      -1.085718       -29.5439
  20   2.0000      -0.884346       -24.0643
  21   2.0000      -0.881739       -23.9933
  22   2.0000      -0.879275       -23.9263
  23   2.0000      -0.878297       -23.8997
  24   2.0000      -0.876539       -23.8518
  25   2.0000      -0.790440       -21.5090
  26   2.0000      -0.757692       -20.6179
  27   2.0000      -0.746553       -20.3147
  28   2.0000      -0.558494       -15.1974
  29   2.0000      -0.557670       -15.1750
  30   2.0000      -0.555880       -15.1263
  31   2.0000      -0.499916       -13.6034
  32   2.0000      -0.331608        -9.0235
  33   2.0000      -0.320534        -8.7222
  34   2.0000      -0.313586        -8.5331
  35   2.0000      -0.300669        -8.1816
  36   2.0000      -0.290823        -7.9137
  37   2.0000      -0.278518        -7.5789
  38   2.0000      -0.275154        -7.4873
  39   2.0000      -0.266756        -7.2588
  40   2.0000      -0.266525        -7.2525
  41   0.0000      -0.044682        -1.2159
  42   0.0000      -0.032339        -0.8800
  43   0.0000      -0.026946        -0.7332
  44   0.0000      -0.018011        -0.4901
  45   0.0000      -0.003131        -0.0852

MULLIKEN ATOMIC CHARGES
-----------------------
   0 Pb:    0.802057
   1 Cl:   -0.583863
   2 Cl:   -0.527772
   3 Cl:   -0.490173
   4 Cs:    0.799752
Sum of atomic charges:   -0.0000000

LOEWDIN ATOMIC CHARGES
----------------------
   0 Pb:    0.197734
   1 Cl:   -0.156043
   2 Cl:   -0.232174
   3 Cl:   -0.186950
   4 Cs:    0.377434

  Mayer bond orders larger than 0.1
B(  0-Pb,  1-Cl) :   0.4968 B(  0-Pb,  2-Cl) :   0.6917 B(  0-Pb,  3-Cl) :   0.7916
B(  1-Cl,  4-Cs) :   0.2093 B(  2-Cl,  4-Cs) :   0.1064

FINAL SINGLE POINT ENERGY     -1595.060943882231

DIPOLE MOMENT
-------------
                                X             Y             Z
Electronic contribution:     49.45813      31.01167       2.85895
Nuclear contribution   :    -47.06259     -29.35497      -2.21351
                        -----------------------------------------
Total Dipole Moment    :      2.39555       1.65670       0.64544
                        -----------------------------------------
Magnitude (a.u.)       :      2.98327
Magnitude (Debye)      :      7.58287

                             ****ORCA TERMINATED NORMALLY****
TOTAL RUN TIME: 0 days 0 hours 12 minutes 49 seconds 539 msec
