                         Program Version 3.0.3 - RELEASE   -
|  1> ! PW6B95 def2-TZVP GCP(DFT/TZ) ECP{def2-TZVP} Grid7 MORead
|  2> %pal nprocs 2 end
|  3> %method
|  4>  RunTyp Gradient
|  5>  end
|  6> %maxcore 2000
|  7> %moinp "previous.gbw"
|  8> *xyz 0 1
|  9> Pb 0.270034 0.341787 0.417111
| 10> Cl 2.623714 0.954565 -0.619316
| 11> Cl -0.265088 2.890046 0.825109
| 12> Cl 1.269117 0.055690 2.806306
| 13> Cs 3.442787 4.101450 3.005204
| 14> *
| 15>
| 16>                          ****END OF INPUT****

CARTESIAN COORDINATES (ANGSTROEM)
---------------------------------
  Pb     0.270034    0.341787    0.417111
  Cl     2.623714    0.954565   -0.619316
  Cl    -0.265088    2.890046    0.825109
  Cl     1.269117    0.055690    2.806306
  Cs     3.442787    4.101450    3.005204

 Total Charge           Charge          ....    0
 Multiplicity           Mult            ....    1
 Number of Electrons    NEL             ....   82
 Basis Dimension        Dim             ....  190

ORBITAL ENERGIES
----------------

  NO   OCC          E(Eh)            E(eV)
   0   2.0000    -101.829623     -2770.9249
   1   2.0000    -101.828068     -2770.8826
   2   2.0000    -101.821648     -2770.7079
   3   2.0000      -9.469853      -257.6878
   4   2.0000      -9.468163      -257.6418
   5   2.0000      -9.461608      -257.4634
   6   2.0000      -7.199553      -195.9098
   7   2.0000      -7.197844      -195.8633
   8   2.0000      -7.196927      -195.8384
   9   2.0000      -7.196657      -195.8310
  10   2.0000      -7.195298      -195.7940
  11   2.0000      -7.194970      -195.7851
  12   2.0000      -7.191389      -195.6876
  13   2.0000      -7.188659      -195.6134
  14   2.0000      -7.188412      -195.6066
  15   2.0000      -5.531373      -150.5163
  16   2.0000      -3.355242       -91.3008
  17   2.0000      -3.354999       -91.2942
  18   2.0000      -3.353670       -91.2580
  19   2.0000      -1.141560       -31.0634
  20   2.0000      -0.850755       -23.1502
  21   2.0000      -0.849794       -23.1241
  22   2.0000      -0.844920       -22.9914
  23   2.0000      -0.844749       -22.9868
  24   2.0000      -0.843662       -22.9572
  25   2.0000      -0.744953       -20.2712
  26   2.0000      -0.728780       -19.8311
  27   2.0000      -0.723064       -19.6756
  28   2.0000      -0.610804       -16.6208
  29   2.0000      -0.610601       -16.6153
  30   2.0000      -0.607420       -16.5287
  31   2.0000      -0.469966       -12.7884
  32   2.0000      -0.295308        -8.0357
  33   2.0000      -0.291161        -7.9229
  34   2.0000      -0.281566        -7.6618
  35   2.0000      -0.264140        -7.1876
  36   2.0000      -0.263562        -7.1719
  37   2.0000      -0.250960        -6.8290
  38   2.0000      -0.246753        -6.7145
  39   2.0000      -0.244640        -6.6570
  40   2.0000      -0.238020        -6.4769
  41   0.0000      -0.075509        -2.0547
  42   0.0000      -0.023570        -0.6414
  43   0.0000      -0.023502        -0.6395
  44   0.0000      -0.022374        -0.6088
  45   0.0000      -0.013245        -0.3604

MULLIKEN ATOMIC CHARGES
-----------------------
   0 Pb:    0.783542
   1 Cl:   -0.550472
   2 Cl:   -0.557377
   3 Cl:   -0.548023
   4 Cs:    0.872330
Sum of atomic charges:   -0.0000000

LOEWDIN ATOMIC CHARGES
----------------------
   0 Pb:    0.068686
   1 Cl:   -0.262017
   2 Cl:   -0.249327
   3 Cl:   -0.234334
   4 Cs:    0.676992

  Mayer bond orders larger than 0.1
B(  0-Pb,  1-Cl) :   0.6932 B(  0-Pb,  2-Cl) :   0.6586 B(  0-Pb,  3-Cl) :   0.6852

FINAL SINGLE POINT ENERGY     -1595.045508655436

DIPOLE MOMENT
-------------
                                X             Y             Z
Electronic contribution:     39.42614      56.26298      43.30242
Nuclear contribution   :    -36.54652     -52.50216     -40.46841
                        -----------------------------------------
Total Dipole Moment    :      2.87962       3.76082       2.83400
                        -----------------------------------------
Magnitude (a.u.)       :      5.51974
Magnitude (Debye)      :     14.03006

                             ****ORCA TERMINATED NORMALLY****
TOTAL RUN TIME: 0 days 0 hours 12 minutes 33 seconds 989 msec
