                         Program Version 3.0.3 - RELEASE   -
|  1> ! RIJCOSX RI-B2PLYP D3BJ def2-TZVP ECP{def2-TZVP} TIGHTSCF Grid5 FinalGrid6 MORead
|  2> %method
|  3>  RunTyp Gradient
|  4>  end
|  5> %maxcore 1000
|  6> %moinp "previous.gbw"
|  7> *xyz -2 1
|  8> C 2.821971 3.493173 2.716929
|  9> N 2.031893 2.485380 2.005967
| 10> H 3.493737 3.003675 3.431461
| 11> H 2.156449 4.174155 3.259759
| 12> H 3.419280 4.070497 2.001994
| 13> H 1.424368 1.881241 2.639320
| 14> H 2.617127 1.787701 1.451958
| 15> H 1.353302 2.890520 1.291746
| 16> Pb 0.114131 -0.071353 0.162994
| 17> Cl 3.218142 0.300438 0.289294
| 18> Cl -0.011881 3.079963 -0.072477
| 19> Cl 0.144620 0.416152 3.216522
| 20> Cl -2.971130 -0.238527 0.213372
| 21> Cl 0.086724 -0.469784 -2.789044
| 22> Cl 0.188673 -3.159916 0.498766
| 23> N -1.884966 -2.527607 -1.578982
| 24> C -2.664881 -3.549172 -2.281400
| 25> H -2.474954 -1.829497 -1.031708
| 26> H -1.279571 -1.925402 -2.215561
| 27> H -3.259633 -4.123288 -1.561779
| 28> H -1.991792 -4.230944 -2.813775
| 29> H -3.338231 -3.073756 -3.003955
| 30> H -1.204879 -2.923566 -0.859634
| 31> *
| 32>
| 33>                          ****END OF INPUT****

CARTESIAN COORDINATES (ANGSTROEM)
---------------------------------
  C      2.821971    3.493173    2.716929
  N      2.031893    2.485380    2.005967
  H      3.493737    3.003675    3.431461
  H      2.156449    4.174155    3.259759
  H      3.419280    4.070497    2.001994
  H      1.424368    1.881241    2.639320
  H      2.617127    1.787701    1.451958
  H      1.353302    2.890520    1.291746
  Pb     0.114131   -0.071353    0.162994
  Cl     3.218142    0.300438    0.289294
  Cl    -0.011881    3.079963   -0.072477
  Cl     0.144620    0.416152    3.216522
  Cl    -2.971130   -0.238527    0.213372
  Cl     0.086724   -0.469784   -2.789044
  Cl     0.188673   -3.159916    0.498766
  N     -1.884966   -2.527607   -1.578982
  C     -2.664881   -3.549172   -2.281400
  H     -2.474954   -1.829497   -1.031708
  H     -1.279571   -1.925402   -2.215561
  H     -3.259633   -4.123288   -1.561779
  H     -1.991792   -4.230944   -2.813775
  H     -3.338231   -3.073756   -3.003955
  H     -1.204879   -2.923566   -0.859634

 Total Charge           Charge          ....   -2
 Multiplicity           Mult            ....    1
 Number of Electrons    NEL             ....  164
 Basis Dimension        Dim             ....  468

ORBITAL ENERGIES
----------------

  NO   OCC          E(Eh)            E(eV)
   0   2.0000    -102.588393     -2791.5721
   1   2.0000    -102.586059     -2791.5086
   2   2.0000    -102.580623     -2791.3607
   3   2.0000    -102.578984     -2791.3161
   4   2.0000    -102.577306     -2791.2704
   5   2.0000    -102.575239     -2791.2142
   6   2.0000     -14.704118      -400.1194
   7   2.0000     -14.685215      -399.6050
   8   2.0000     -10.498114      -285.6682
   9   2.0000     -10.486530      -285.3530
  10   2.0000      -9.594921      -261.0911
  11   2.0000      -9.592702      -261.0307
  12   2.0000      -9.586877      -260.8722
  13   2.0000      -9.585573      -260.8367
  14   2.0000      -9.584007      -260.7941
  15   2.0000      -9.581744      -260.7325
  16   2.0000      -7.231379      -196.7758
  17   2.0000      -7.231049      -196.7668
  18   2.0000      -7.230401      -196.7492
  19   2.0000      -7.229056      -196.7126
  20   2.0000      -7.228953      -196.7098
  21   2.0000      -7.228166      -196.6884
  22   2.0000      -7.223318      -196.5565
  23   2.0000      -7.223067      -196.5496
  24   2.0000      -7.222391      -196.5312
  25   2.0000      -7.221958      -196.5195
  26   2.0000      -7.221784      -196.5147
  27   2.0000      -7.221076      -196.4955
  28   2.0000      -7.220382      -196.4766
  29   2.0000      -7.220230      -196.4724
  30   2.0000      -7.219486      -196.4522
  31   2.0000      -7.218166      -196.4163
  32   2.0000      -7.217919      -196.4096
  33   2.0000      -7.217260      -196.3916
  34   2.0000      -5.564020      -151.4047
  35   2.0000      -3.334750       -90.7432
  36   2.0000      -3.334075       -90.7248
  37   2.0000      -3.333552       -90.7106
  38   2.0000      -0.889655       -24.2087
  39   2.0000      -0.874318       -23.7914
  40   2.0000      -0.722959       -19.6727
  41   2.0000      -0.722484       -19.6598
  42   2.0000      -0.721825       -19.6419
  43   2.0000      -0.720434       -19.6040
  44   2.0000      -0.719996       -19.5921
  45   2.0000      -0.640360       -17.4251
  46   2.0000      -0.629217       -17.1219
  47   2.0000      -0.604948       -16.4615
  48   2.0000      -0.602922       -16.4063
  49   2.0000      -0.597115       -16.2483
  50   2.0000      -0.595315       -16.1993
  51   2.0000      -0.594017       -16.1640
  52   2.0000      -0.589477       -16.0405
  53   2.0000      -0.419843       -11.4245
  54   2.0000      -0.419210       -11.4073
  55   2.0000      -0.405422       -11.0321
  56   2.0000      -0.405304       -11.0289
  57   2.0000      -0.371651       -10.1131
  58   2.0000      -0.357693        -9.7333
  59   2.0000      -0.297953        -8.1077
  60   2.0000      -0.297510        -8.0956
  61   2.0000      -0.291684        -7.9371
  62   2.0000      -0.286016        -7.7829
  63   2.0000      -0.285744        -7.7755
  64   2.0000      -0.114897        -3.1265
  65   2.0000      -0.110487        -3.0065
  66   2.0000      -0.107764        -2.9324
  67   2.0000      -0.097742        -2.6597
  68   2.0000      -0.088984        -2.4214
  69   2.0000      -0.088602        -2.4110
  70   2.0000      -0.087524        -2.3816
  71   2.0000      -0.083898        -2.2830
  72   2.0000      -0.082792        -2.2529
  73   2.0000      -0.081760        -2.2248
  74   2.0000      -0.079702        -2.1688
  75   2.0000      -0.077753        -2.1158
  76   2.0000      -0.077643        -2.1128
  77   2.0000      -0.075472        -2.0537
  78   2.0000      -0.074759        -2.0343
  79   2.0000      -0.074240        -2.0202
  80   2.0000      -0.068382        -1.8608
  81   2.0000      -0.044999        -1.2245
  82   0.0000       0.235969         6.4210
  83   0.0000       0.244712         6.6589
  84   0.0000       0.252642         6.8747
  85   0.0000       0.256663         6.9842
  86   0.0000       0.265077         7.2131

Dispersion correction            ...

MULLIKEN ATOMIC CHARGES
-----------------------
   0 C :   -0.269039
   1 N :   -0.290870
   2 H :    0.117145
   3 H :    0.117334
   4 H :    0.118512
   5 H :    0.255918
   6 H :    0.263834
   7 H :    0.266296
   8 Pb:    1.029642
   9 Cl:   -0.707656
  10 Cl:   -0.706376
  11 Cl:   -0.704835
  12 Cl:   -0.697055
  13 Cl:   -0.683909
  14 Cl:   -0.695101
  15 N :   -0.282201
  16 C :   -0.270076
  17 H :    0.251280
  18 H :    0.253793
  19 H :    0.124072
  20 H :    0.122935
  21 H :    0.120525
  22 H :    0.265832
Sum of atomic charges:   -2.0000000

LOEWDIN ATOMIC CHARGES
----------------------
   0 C :   -0.340719
   1 N :    0.032349
   2 H :    0.111393
   3 H :    0.111451
   4 H :    0.112100
   5 H :    0.137954
   6 H :    0.131741
   7 H :    0.124332
   8 Pb:    0.167577
   9 Cl:   -0.519308
  10 Cl:   -0.516835
  11 Cl:   -0.516160
  12 Cl:   -0.519402
  13 Cl:   -0.478908
  14 Cl:   -0.502824
  15 N :    0.039636
  16 C :   -0.335532
  17 H :    0.144781
  18 H :    0.145982
  19 H :    0.114207
  20 H :    0.113742
  21 H :    0.112514
  22 H :    0.129926

  Mayer bond orders larger than 0.1
B(  0-C ,  1-N ) :   0.9411 B(  0-C ,  2-H ) :   0.9607 B(  0-C ,  3-H ) :   0.9604
B(  0-C ,  4-H ) :   0.9603 B(  1-N ,  5-H ) :   0.7557 B(  1-N ,  6-H ) :   0.7464
B(  1-N ,  7-H ) :   0.7352 B(  5-H , 11-Cl) :   0.2555 B(  6-H ,  9-Cl) :   0.2614
B(  7-H , 10-Cl) :   0.2742 B(  8-Pb,  9-Cl) :   0.2581 B(  8-Pb, 10-Cl) :   0.2459
B(  8-Pb, 11-Cl) :   0.2686 B(  8-Pb, 12-Cl) :   0.2789 B(  8-Pb, 13-Cl) :   0.3118
B(  8-Pb, 14-Cl) :   0.2603 B( 12-Cl, 17-H ) :   0.2633 B( 13-Cl, 18-H ) :   0.2480
B( 14-Cl, 22-H ) :   0.2808 B( 15-N , 16-C ) :   0.9383 B( 15-N , 17-H ) :   0.7569
B( 15-N , 18-H ) :   0.7636 B( 15-N , 22-H ) :   0.7332 B( 16-C , 19-H ) :   0.9596
B( 16-C , 20-H ) :   0.9595 B( 16-C , 21-H ) :   0.9600

MP2 TOTAL ENERGY:    -3146.562763344 Eh
Dispersion correction           -0.027634865
FINAL SINGLE POINT ENERGY     -3146.590398208788

DIPOLE MOMENT
-------------
                                X             Y             Z
Electronic contribution:      1.30220      -5.30881      -5.72972
Nuclear contribution   :     -1.47827       4.92035       5.31735
                        -----------------------------------------
Total Dipole Moment    :     -0.17607      -0.38845      -0.41237
                        -----------------------------------------
Magnitude (a.u.)       :      0.59325
Magnitude (Debye)      :      1.50792

                             ****ORCA TERMINATED NORMALLY****
TOTAL RUN TIME: 0 days 0 hours 52 minutes 7 seconds 367 msec
