                         Program Version 3.0.3 - RELEASE   -
|  1> ! RIJCOSX RI-B2PLYP D3BJ def2-TZVP ECP{def2-TZVP} TIGHTSCF Grid5 FinalGrid6 MORead
|  2> %method
|  3>  RunTyp Gradient
|  4>  end
|  5> %maxcore 1000
|  6> %moinp "previous.gbw"
|  7> *xyz 0 1
|  8> C 2.891451 3.575826 2.778059
|  9> N 2.089424 2.555032 2.059582
| 10> H 3.558472 3.076137 3.484362
| 11> H 2.218727 4.247132 3.316750
| 12> H 3.479382 4.144646 2.054078
| 13> H 1.492676 1.958835 2.673590
| 14> H 2.651801 1.866309 1.511973
| 15> H 1.418732 2.942131 1.359080
| 16> Pb 0.094699 -0.009018 0.229954
| 17> Cl 2.696240 0.144135 0.212287
| 18> Cl -0.090172 2.574319 -0.141545
| 19> Cl 0.052136 0.368353 2.807767
| 20> Cl -2.512617 -0.156989 0.240982
| 21> Cl 0.103198 -0.331042 -2.351943
| 22> Cl 0.271373 -2.567288 0.597775
| 23> N -1.944119 -2.595072 -1.633806
| 24> C -2.725500 -3.643046 -2.335777
| 25> H -2.519034 -1.905375 -1.102173
| 26> H -1.352579 -2.002501 -2.255638
| 27> H -3.308461 -4.206070 -1.603344
| 28> H -2.038395 -4.314606 -2.855607
| 29> H -3.396098 -3.169682 -3.056568
| 30> H -1.270867 -2.959590 -0.921865
| 31> *
| 32>
| 33>                          ****END OF INPUT****

CARTESIAN COORDINATES (ANGSTROEM)
---------------------------------
  C      2.891451    3.575826    2.778059
  N      2.089424    2.555032    2.059582
  H      3.558472    3.076137    3.484362
  H      2.218727    4.247132    3.316750
  H      3.479382    4.144646    2.054078
  H      1.492676    1.958835    2.673590
  H      2.651801    1.866309    1.511973
  H      1.418732    2.942131    1.359080
  Pb     0.094699   -0.009018    0.229954
  Cl     2.696240    0.144135    0.212287
  Cl    -0.090172    2.574319   -0.141545
  Cl     0.052136    0.368353    2.807767
  Cl    -2.512617   -0.156989    0.240982
  Cl     0.103198   -0.331042   -2.351943
  Cl     0.271373   -2.567288    0.597775
  N     -1.944119   -2.595072   -1.633806
  C     -2.725500   -3.643046   -2.335777
  H     -2.519034   -1.905375   -1.102173
  H     -1.352579   -2.002501   -2.255638
  H     -3.308461   -4.206070   -1.603344
  H     -2.038395   -4.314606   -2.855607
  H     -3.396098   -3.169682   -3.056568
  H     -1.270867   -2.959590   -0.921865

 Total Charge           Charge          ....    0
 Multiplicity           Mult            ....    1
 Number of Electrons    NEL             ....  162
 Basis Dimension        Dim             ....  468

ORBITAL ENERGIES
----------------

  NO   OCC          E(Eh)            E(eV)
   0   2.0000    -102.866829     -2799.1487
   1   2.0000    -102.865223     -2799.1050
   2   2.0000    -102.864816     -2799.0939
   3   2.0000    -102.864388     -2799.0823
   4   2.0000    -102.863310     -2799.0530
   5   2.0000    -102.862674     -2799.0357
   6   2.0000     -14.962194      -407.1420
   7   2.0000     -14.953843      -406.9147
   8   2.0000     -10.709822      -291.4291
   9   2.0000     -10.705205      -291.3034
  10   2.0000      -9.873275      -268.6655
  11   2.0000      -9.871662      -268.6216
  12   2.0000      -9.871335      -268.6127
  13   2.0000      -9.870770      -268.5973
  14   2.0000      -9.869658      -268.5671
  15   2.0000      -9.869113      -268.5522
  16   2.0000      -7.511244      -204.3913
  17   2.0000      -7.509631      -204.3475
  18   2.0000      -7.509278      -204.3378
  19   2.0000      -7.508754      -204.3236
  20   2.0000      -7.508281      -204.3107
  21   2.0000      -7.507793      -204.2974
  22   2.0000      -7.507638      -204.2932
  23   2.0000      -7.507042      -204.2770
  24   2.0000      -7.506692      -204.2675
  25   2.0000      -7.506365      -204.2586
  26   2.0000      -7.506190      -204.2538
  27   2.0000      -7.505859      -204.2448
  28   2.0000      -7.505775      -204.2425
  29   2.0000      -7.505310      -204.2299
  30   2.0000      -7.504685      -204.2129
  31   2.0000      -7.504206      -204.1998
  32   2.0000      -7.504152      -204.1983
  33   2.0000      -7.503648      -204.1846
  34   2.0000      -5.834252      -158.7581
  35   2.0000      -3.607246       -98.1582
  36   2.0000      -3.606493       -98.1377
  37   2.0000      -3.606464       -98.1369
  38   2.0000      -1.138518       -30.9807
  39   2.0000      -1.132512       -30.8172
  40   2.0000      -1.008907       -27.4538
  41   2.0000      -1.008587       -27.4451
  42   2.0000      -0.993577       -27.0366
  43   2.0000      -0.992368       -27.0037
  44   2.0000      -0.992157       -26.9980
  45   2.0000      -0.903878       -24.5958
  46   2.0000      -0.884289       -24.0627
  47   2.0000      -0.880900       -23.9705
  48   2.0000      -0.880535       -23.9606
  49   2.0000      -0.861672       -23.4473
  50   2.0000      -0.861466       -23.4417
  51   2.0000      -0.858171       -23.3520
  52   2.0000      -0.852776       -23.2052
  53   2.0000      -0.665580       -18.1114
  54   2.0000      -0.665058       -18.0972
  55   2.0000      -0.659857       -17.9556
  56   2.0000      -0.659522       -17.9465
  57   2.0000      -0.600390       -16.3374
  58   2.0000      -0.595330       -16.1998
  59   2.0000      -0.572831       -15.5875
  60   2.0000      -0.520399       -14.1608
  61   2.0000      -0.520341       -14.1592
  62   2.0000      -0.516155       -14.0453
  63   2.0000      -0.515977       -14.0404
  64   2.0000      -0.412211       -11.2168
  65   2.0000      -0.411778       -11.2051
  66   2.0000      -0.411428       -11.1955
  67   2.0000      -0.374754       -10.1976
  68   2.0000      -0.369299       -10.0491
  69   2.0000      -0.369157       -10.0453
  70   2.0000      -0.352941        -9.6040
  71   2.0000      -0.352071        -9.5803
  72   2.0000      -0.351602        -9.5676
  73   2.0000      -0.346474        -9.4280
  74   2.0000      -0.345181        -9.3929
  75   2.0000      -0.344928        -9.3860
  76   2.0000      -0.338344        -9.2068
  77   2.0000      -0.338234        -9.2038
  78   2.0000      -0.336147        -9.1470
  79   2.0000      -0.335945        -9.1415
  80   2.0000      -0.330998        -9.0069
  81   0.0000      -0.118260        -3.2180
  82   0.0000       0.037625         1.0238
  83   0.0000       0.042341         1.1522
  84   0.0000       0.084639         2.3032
  85   0.0000       0.089221         2.4278

Dispersion correction            ...

MULLIKEN ATOMIC CHARGES
-----------------------
   0 C :   -0.278341
   1 N :   -0.281875
   2 H :    0.161689
   3 H :    0.162421
   4 H :    0.162690
   5 H :    0.274460
   6 H :    0.273185
   7 H :    0.271550
   8 Pb:    1.030232
   9 Cl:   -0.420584
  10 Cl:   -0.422924
  11 Cl:   -0.421653
  12 Cl:   -0.424992
  13 Cl:   -0.423042
  14 Cl:   -0.418942
  15 N :   -0.279949
  16 C :   -0.278327
  17 H :    0.274948
  18 H :    0.275656
  19 H :    0.164457
  20 H :    0.163911
  21 H :    0.163397
  22 H :    0.272031
Sum of atomic charges:    0.0000000

LOEWDIN ATOMIC CHARGES
----------------------
   0 C :   -0.289824
   1 N :    0.077402
   2 H :    0.127146
   3 H :    0.127301
   4 H :    0.127371
   5 H :    0.159323
   6 H :    0.160208
   7 H :    0.160180
   8 Pb:   -0.549927
   9 Cl:   -0.126926
  10 Cl:   -0.133597
  11 Cl:   -0.125891
  12 Cl:   -0.135714
  13 Cl:   -0.130533
  14 Cl:   -0.122361
  15 N :    0.083057
  16 C :   -0.287601
  17 H :    0.164984
  18 H :    0.166125
  19 H :    0.128143
  20 H :    0.127970
  21 H :    0.127764
  22 H :    0.165403

  Mayer bond orders larger than 0.1
B(  0-C ,  1-N ) :   0.8934 B(  0-C ,  2-H ) :   0.9525 B(  0-C ,  3-H ) :   0.9521
B(  0-C ,  4-H ) :   0.9519 B(  1-N ,  5-H ) :   0.8072 B(  1-N ,  6-H ) :   0.8075
B(  1-N ,  7-H ) :   0.8079 B(  5-H , 11-Cl) :   0.1598 B(  6-H ,  9-Cl) :   0.1611
B(  7-H , 10-Cl) :   0.1626 B(  8-Pb,  9-Cl) :   0.5930 B(  8-Pb, 10-Cl) :   0.5873
B(  8-Pb, 11-Cl) :   0.5906 B(  8-Pb, 12-Cl) :   0.5900 B(  8-Pb, 13-Cl) :   0.5952
B(  8-Pb, 14-Cl) :   0.5994 B( 12-Cl, 17-H ) :   0.1555 B( 13-Cl, 18-H ) :   0.1506
B( 14-Cl, 22-H ) :   0.1585 B( 15-N , 16-C ) :   0.8925 B( 15-N , 17-H ) :   0.8110
B( 15-N , 18-H ) :   0.8136 B( 15-N , 22-H ) :   0.8111 B( 16-C , 19-H ) :   0.9512
B( 16-C , 20-H ) :   0.9514 B( 16-C , 21-H ) :   0.9518

MP2 TOTAL ENERGY:    -3146.416333364 Eh
Dispersion correction           -0.030578962
FINAL SINGLE POINT ENERGY     -3146.446912326075

DIPOLE MOMENT
-------------
                                X             Y             Z
Electronic contribution:      0.93971      -0.47382       0.47437
Nuclear contribution   :     -0.99949       0.28187      -0.54869
                        -----------------------------------------
Total Dipole Moment    :     -0.05978      -0.19195      -0.07431
                        -----------------------------------------
Magnitude (a.u.)       :      0.21434
Magnitude (Debye)      :      0.54480

                             ****ORCA TERMINATED NORMALLY****
TOTAL RUN TIME: 0 days 0 hours 32 minutes 11 seconds 61 msec
