                         Program Version 3.0.3 - RELEASE   -
|  1> ! PW6B95 def2-TZVP GCP(DFT/TZ) ECP{def2-TZVP} Grid7 MORead
|  2> %pal nprocs 2 end
|  3> %method
|  4>  RunTyp Gradient
|  5>  end
|  6> %maxcore 2000
|  7> %moinp "previous.gbw"
|  8> *xyz 0 1
|  9> Pb 0.177730 0.446159 0.544080
| 10> Cl 2.471922 0.256221 -0.709638
| 11> Cl 0.335911 3.050120 0.509042
| 12> Cl 1.428674 0.325044 2.879370
| 13> Cs 3.469966 4.099042 3.038378
| 14> *
| 15>
| 16>                          ****END OF INPUT****

CARTESIAN COORDINATES (ANGSTROEM)
---------------------------------
  Pb     0.177730    0.446159    0.544080
  Cl     2.471922    0.256221   -0.709638
  Cl     0.335911    3.050120    0.509042
  Cl     1.428674    0.325044    2.879370
  Cs     3.469966    4.099042    3.038378

 Total Charge           Charge          ....    0
 Multiplicity           Mult            ....    1
 Number of Electrons    NEL             ....   82
 Basis Dimension        Dim             ....  190

ORBITAL ENERGIES
----------------

  NO   OCC          E(Eh)            E(eV)
   0   2.0000    -101.836213     -2771.1042
   1   2.0000    -101.829828     -2770.9305
   2   2.0000    -101.817724     -2770.6011
   3   2.0000      -9.476532      -257.8695
   4   2.0000      -9.469858      -257.6879
   5   2.0000      -9.457678      -257.3565
   6   2.0000      -7.206170      -196.0899
   7   2.0000      -7.203683      -196.0222
   8   2.0000      -7.203324      -196.0124
   9   2.0000      -7.199520      -195.9089
  10   2.0000      -7.197037      -195.8413
  11   2.0000      -7.196664      -195.8312
  12   2.0000      -7.187628      -195.5853
  13   2.0000      -7.184557      -195.5017
  14   2.0000      -7.184456      -195.4990
  15   2.0000      -5.533381      -150.5709
  16   2.0000      -3.357472       -91.3615
  17   2.0000      -3.357079       -91.3508
  18   2.0000      -3.355372       -91.3043
  19   2.0000      -1.136793       -30.9337
  20   2.0000      -0.853160       -23.2157
  21   2.0000      -0.851425       -23.1684
  22   2.0000      -0.847336       -23.0572
  23   2.0000      -0.846509       -23.0347
  24   2.0000      -0.845388       -23.0042
  25   2.0000      -0.748923       -20.3792
  26   2.0000      -0.732378       -19.9290
  27   2.0000      -0.720093       -19.5947
  28   2.0000      -0.606685       -16.5087
  29   2.0000      -0.605755       -16.4834
  30   2.0000      -0.602375       -16.3915
  31   2.0000      -0.471890       -12.8408
  32   2.0000      -0.299675        -8.1546
  33   2.0000      -0.291652        -7.9363
  34   2.0000      -0.284812        -7.7501
  35   2.0000      -0.268568        -7.3081
  36   2.0000      -0.265114        -7.2141
  37   2.0000      -0.255169        -6.9435
  38   2.0000      -0.244227        -6.6458
  39   2.0000      -0.241848        -6.5810
  40   2.0000      -0.238877        -6.5002
  41   0.0000      -0.073015        -1.9868
  42   0.0000      -0.022325        -0.6075
  43   0.0000      -0.022282        -0.6063
  44   0.0000      -0.020579        -0.5600
  45   0.0000      -0.011042        -0.3005

MULLIKEN ATOMIC CHARGES
-----------------------
   0 Pb:    0.783832
   1 Cl:   -0.528294
   2 Cl:   -0.556175
   3 Cl:   -0.562044
   4 Cs:    0.862682
Sum of atomic charges:   -0.0000000

LOEWDIN ATOMIC CHARGES
----------------------
   0 Pb:    0.072403
   1 Cl:   -0.249766
   2 Cl:   -0.221678
   3 Cl:   -0.251798
   4 Cs:    0.650839

  Mayer bond orders larger than 0.1
B(  0-Pb,  1-Cl) :   0.7543 B(  0-Pb,  2-Cl) :   0.6420 B(  0-Pb,  3-Cl) :   0.6384
B(  2-Cl,  4-Cs) :   0.1154 B(  3-Cl,  4-Cs) :   0.1087

FINAL SINGLE POINT ENERGY     -1595.048062757021

DIPOLE MOMENT
-------------
                                X             Y             Z
Electronic contribution:     24.77472      64.96904      54.98690
Nuclear contribution   :    -22.47150     -60.92876     -51.89340
                        -----------------------------------------
Total Dipole Moment    :      2.30322       4.04029       3.09350
                        -----------------------------------------
Magnitude (a.u.)       :      5.58556
Magnitude (Debye)      :     14.19736

                             ****ORCA TERMINATED NORMALLY****
TOTAL RUN TIME: 0 days 0 hours 12 minutes 29 seconds 733 msec
