                         Program Version 3.0.3 - RELEASE   -
|  1> ! RIJCOSX RI-B2PLYP D3BJ def2-TZVP ECP{def2-TZVP} TIGHTSCF Grid5 FinalGrid6 SlowConv MORead
|  2> %method
|  3>  RunTyp Gradient
|  4>  end
|  5> %maxcore 1000
|  6> %moinp "previous.gbw"
|  7> *xyz 0 1
|  8> C -0.394281 0.276013 -0.426662
|  9> N -1.165380 -0.685592 -1.253010
| 10> H 0.248796 -0.278576 0.260517
| 11> H -1.090820 0.897444 0.140826
| 12> H 0.215705 0.904875 -1.079130
| 13> H -1.783150 -1.324970 -0.698370
| 14> H -0.582260 -1.326300 -1.835140
| 15> H -1.813140 -0.240924 -1.938260
| 16> Pb -2.758310 -3.881810 -2.722090
| 17> Cl -1.287720 -3.274240 -4.744610
| 18> Cl -2.642220 1.307920 -2.810960
| 19> Cl -4.715560 -3.446470 -1.109150
| 20> *
| 21>
| 22>                          ****END OF INPUT****

CARTESIAN COORDINATES (ANGSTROEM)
---------------------------------
  C     -0.394281    0.276013   -0.426662
  N     -1.165380   -0.685592   -1.253010
  H      0.248796   -0.278576    0.260517
  H     -1.090820    0.897444    0.140826
  H      0.215705    0.904875   -1.079130
  H     -1.783150   -1.324970   -0.698370
  H     -0.582260   -1.326300   -1.835140
  H     -1.813140   -0.240924   -1.938260
  Pb    -2.758310   -3.881810   -2.722090
  Cl    -1.287720   -3.274240   -4.744610
  Cl    -2.642220    1.307920   -2.810960
  Cl    -4.715560   -3.446470   -1.109150

 Total Charge           Charge          ....    0
 Multiplicity           Mult            ....    1
 Number of Electrons    NEL             ....   92
 Basis Dimension        Dim             ....  259

ORBITAL ENERGIES
----------------

  NO   OCC          E(Eh)            E(eV)
   0   2.0000    -102.883112     -2799.5918
   1   2.0000    -102.882575     -2799.5772
   2   2.0000    -102.758808     -2796.2093
   3   2.0000     -14.990223      -407.9047
   4   2.0000     -10.712698      -291.5073
   5   2.0000      -9.889294      -269.1014
   6   2.0000      -9.888726      -269.0859
   7   2.0000      -9.764951      -265.7178
   8   2.0000      -7.526024      -204.7935
   9   2.0000      -7.525468      -204.7784
  10   2.0000      -7.524895      -204.7628
  11   2.0000      -7.524350      -204.7480
  12   2.0000      -7.524332      -204.7475
  13   2.0000      -7.523775      -204.7323
  14   2.0000      -7.401722      -201.4111
  15   2.0000      -7.400679      -201.3827
  16   2.0000      -7.400650      -201.3819
  17   2.0000      -5.878186      -159.9536
  18   2.0000      -3.652950       -99.4018
  19   2.0000      -3.650234       -99.3279
  20   2.0000      -3.642898       -99.1283
  21   2.0000      -1.159463       -31.5506
  22   2.0000      -1.043424       -28.3930
  23   2.0000      -1.042133       -28.3579
  24   2.0000      -1.039074       -28.2746
  25   2.0000      -1.035180       -28.1687
  26   2.0000      -1.033472       -28.1222
  27   2.0000      -0.895638       -24.3715
  28   2.0000      -0.894802       -24.3488
  29   2.0000      -0.868529       -23.6339
  30   2.0000      -0.779187       -21.2027
  31   2.0000      -0.689457       -18.7611
  32   2.0000      -0.673450       -18.3255
  33   2.0000      -0.613808       -16.7026
  34   2.0000      -0.603749       -16.4288
  35   2.0000      -0.522350       -14.2139
  36   2.0000      -0.522095       -14.2069
  37   2.0000      -0.425937       -11.5903
  38   2.0000      -0.381499       -10.3811
  39   2.0000      -0.379670       -10.3313
  40   2.0000      -0.369687       -10.0597
  41   2.0000      -0.368368       -10.0238
  42   2.0000      -0.326329        -8.8799
  43   2.0000      -0.271547        -7.3892
  44   2.0000      -0.259484        -7.0609
  45   2.0000      -0.258755        -7.0411
  46   0.0000      -0.121744        -3.3128
  47   0.0000      -0.098958        -2.6928
  48   0.0000       0.009594         0.2611
  49   0.0000       0.012310         0.3350
  50   0.0000       0.061974         1.6864

Dispersion correction            ...

MULLIKEN ATOMIC CHARGES
-----------------------
   0 C :   -0.249699
   1 N :   -0.299003
   2 H :    0.138839
   3 H :    0.178900
   4 H :    0.178915
   5 H :    0.267087
   6 H :    0.269817
   7 H :    0.246830
   8 Pb:    0.845182
   9 Cl:   -0.419996
  10 Cl:   -0.732247
  11 Cl:   -0.424626
Sum of atomic charges:   -0.0000000

LOEWDIN ATOMIC CHARGES
----------------------
   0 C :   -0.289643
   1 N :    0.090338
   2 H :    0.117422
   3 H :    0.136307
   4 H :    0.136187
   5 H :    0.195354
   6 H :    0.194433
   7 H :    0.109624
   8 Pb:    0.323313
   9 Cl:   -0.165726
  10 Cl:   -0.678338
  11 Cl:   -0.169272

  Mayer bond orders larger than 0.1
B(  0-C ,  1-N ) :   0.8741 B(  0-C ,  2-H ) :   0.9443 B(  0-C ,  3-H ) :   0.9449
B(  0-C ,  4-H ) :   0.9453 B(  1-N ,  5-H ) :   0.8766 B(  1-N ,  6-H ) :   0.8758
B(  1-N ,  7-H ) :   0.6674 B(  7-H , 10-Cl) :   0.4048 B(  8-Pb,  9-Cl) :   0.9088
B(  8-Pb, 11-Cl) :   0.9031

MP2 TOTAL ENERGY:    -1669.517212282 Eh
Dispersion correction           -0.009804688
FINAL SINGLE POINT ENERGY     -1669.527016969746

DIPOLE MOMENT
-------------
                                X             Y             Z
Electronic contribution:    -31.01973    -164.36589     -27.24099
Nuclear contribution   :     33.31292     161.17084      29.57915
                        -----------------------------------------
Total Dipole Moment    :      2.29319      -3.19505       2.33816
                        -----------------------------------------
Magnitude (a.u.)       :      4.57537
Magnitude (Debye)      :     11.62966

                             ****ORCA TERMINATED NORMALLY****
TOTAL RUN TIME: 0 days 0 hours 12 minutes 25 seconds 207 msec
