                         Program Version 3.0.3 - RELEASE   -
|  1> ! RIJCOSX RI-B2PLYP D3BJ def2-TZVP ECP{def2-TZVP} TIGHTSCF Grid5 FinalGrid6 SlowConv MORead
|  2> %method
|  3>  RunTyp Gradient
|  4>  end
|  5> %maxcore 1000
|  6> %moinp "previous.gbw"
|  7> *xyz 0 1
|  8> C -1.997010 0.211755 -0.352967
|  9> N -3.369510 0.315374 -0.817973
| 10> H -3.767160 1.201060 -0.543056
| 11> H -3.935300 -0.428390 -0.388802
| 12> H -3.502710 0.219031 -1.837690
| 13> H -2.150310 0.203037 0.701472
| 14> H -1.438550 1.097060 -0.633238
| 15> H -1.601460 -0.713550 -0.679026
| 16> Pb -2.922480 -2.607230 -2.386460
| 17> Cl -1.336670 -4.514160 -2.459160
| 18> Cl -2.355990 -0.604607 -3.547640
| 19> Cl -4.062910 -2.269120 -0.177029
| 20> *
| 21>
| 22>                          ****END OF INPUT****

CARTESIAN COORDINATES (ANGSTROEM)
---------------------------------
  C     -1.997010    0.211755   -0.352967
  N     -3.369510    0.315374   -0.817973
  H     -3.767160    1.201060   -0.543056
  H     -3.935300   -0.428390   -0.388802
  H     -3.502710    0.219031   -1.837690
  H     -2.150310    0.203037    0.701472
  H     -1.438550    1.097060   -0.633238
  H     -1.601460   -0.713550   -0.679026
  Pb    -2.922480   -2.607230   -2.386460
  Cl    -1.336670   -4.514160   -2.459160
  Cl    -2.355990   -0.604607   -3.547640
  Cl    -4.062910   -2.269120   -0.177029

 Total Charge           Charge          ....    0
 Multiplicity           Mult            ....    1
 Number of Electrons    NEL             ....   92
 Basis Dimension        Dim             ....  259

ORBITAL ENERGIES
----------------

  NO   OCC          E(Eh)            E(eV)
   0   2.0000    -102.866258     -2799.1332
   1   2.0000    -102.860363     -2798.9728
   2   2.0000    -102.823852     -2797.9792
   3   2.0000     -14.980788      -407.6480
   4   2.0000     -10.711500      -291.4747
   5   2.0000      -9.876196      -268.7450
   6   2.0000      -9.870504      -268.5901
   7   2.0000      -9.831373      -267.5253
   8   2.0000      -7.512783      -204.4332
   9   2.0000      -7.511412      -204.3959
  10   2.0000      -7.511155      -204.3889
  11   2.0000      -7.506886      -204.2728
  12   2.0000      -7.505922      -204.2465
  13   2.0000      -7.505506      -204.2352
  14   2.0000      -7.468368      -203.2246
  15   2.0000      -7.466631      -203.1774
  16   2.0000      -7.466401      -203.1711
  17   2.0000      -5.784462      -157.4032
  18   2.0000      -3.557567       -96.8063
  19   2.0000      -3.554744       -96.7295
  20   2.0000      -3.553643       -96.6995
  21   2.0000      -1.181689       -32.1554
  22   2.0000      -0.971566       -26.4376
  23   2.0000      -0.960566       -26.1383
  24   2.0000      -0.954727       -25.9795
  25   2.0000      -0.947317       -25.7778
  26   2.0000      -0.945933       -25.7401
  27   2.0000      -0.897538       -24.4232
  28   2.0000      -0.883269       -24.0350
  29   2.0000      -0.879487       -23.9321
  30   2.0000      -0.839804       -22.8522
  31   2.0000      -0.715989       -19.4830
  32   2.0000      -0.702338       -19.1116
  33   2.0000      -0.612791       -16.6749
  34   2.0000      -0.563388       -15.3306
  35   2.0000      -0.544983       -14.8297
  36   2.0000      -0.532026       -14.4772
  37   2.0000      -0.409112       -11.1325
  38   2.0000      -0.393243       -10.7007
  39   2.0000      -0.379222       -10.3192
  40   2.0000      -0.367548       -10.0015
  41   2.0000      -0.367284        -9.9943
  42   2.0000      -0.363109        -9.8807
  43   2.0000      -0.322773        -8.7831
  44   2.0000      -0.319453        -8.6928
  45   2.0000      -0.246006        -6.6942
  46   0.0000      -0.026543        -0.7223
  47   0.0000       0.010296         0.2802
  48   0.0000       0.054082         1.4717
  49   0.0000       0.060091         1.6352
  50   0.0000       0.073053         1.9879

Dispersion correction            ...

MULLIKEN ATOMIC CHARGES
-----------------------
   0 C :   -0.250522
   1 N :   -0.286939
   2 H :    0.266482
   3 H :    0.279113
   4 H :    0.275664
   5 H :    0.152128
   6 H :    0.161398
   7 H :    0.176314
   8 Pb:    0.717718
   9 Cl:   -0.493378
  10 Cl:   -0.490603
  11 Cl:   -0.507374
Sum of atomic charges:   -0.0000000

LOEWDIN ATOMIC CHARGES
----------------------
   0 C :   -0.297705
   1 N :    0.100597
   2 H :    0.188986
   3 H :    0.117144
   4 H :    0.165146
   5 H :    0.126404
   6 H :    0.127519
   7 H :    0.120385
   8 Pb:   -0.212782
   9 Cl:   -0.177805
  10 Cl:   -0.108964
  11 Cl:   -0.148924

  Mayer bond orders larger than 0.1
B(  0-C ,  1-N ) :   0.8705 B(  0-C ,  5-H ) :   0.9448 B(  0-C ,  6-H ) :   0.9480
B(  0-C ,  7-H ) :   0.9523 B(  1-N ,  2-H ) :   0.8871 B(  1-N ,  3-H ) :   0.7459
B(  1-N ,  4-H ) :   0.8139 B(  3-H , 11-Cl) :   0.2441 B(  4-H , 10-Cl) :   0.1397
B(  8-Pb,  9-Cl) :   0.8053 B(  8-Pb, 10-Cl) :   0.6464 B(  8-Pb, 11-Cl) :   0.5146

MP2 TOTAL ENERGY:    -1669.551786503 Eh
Dispersion correction           -0.014361097
FINAL SINGLE POINT ENERGY     -1669.566147599738

DIPOLE MOMENT
-------------
                                X             Y             Z
Electronic contribution:    -19.15205     -59.37967     -48.14754
Nuclear contribution   :     18.17518      63.01166      49.53450
                        -----------------------------------------
Total Dipole Moment    :     -0.97687       3.63200       1.38696
                        -----------------------------------------
Magnitude (a.u.)       :      4.00866
Magnitude (Debye)      :     10.18920

                             ****ORCA TERMINATED NORMALLY****
TOTAL RUN TIME: 0 days 0 hours 24 minutes 2 seconds 957 msec
