                         Program Version 3.0.3 - RELEASE   -
|  1> ! PW6B95 def2-TZVP GCP(DFT/TZ) ECP{def2-TZVP} Grid7 MORead
|  2> %pal nprocs 2 end
|  3> %method
|  4>  RunTyp Gradient
|  5>  end
|  6> %maxcore 2000
|  7> %moinp "previous.gbw"
|  8> *xyz 0 1
|  9> Pb 0.343067 0.431878 0.264084
| 10> Cl 2.972870 0.677938 0.171426
| 11> Cl 0.074123 2.934059 0.536082
| 12> Cl 0.448435 0.101634 2.840296
| 13> Cs 3.132040 3.708671 2.779269
| 14> *
| 15>
| 16>                          ****END OF INPUT****

CARTESIAN COORDINATES (ANGSTROEM)
---------------------------------
  Pb     0.343067    0.431878    0.264084
  Cl     2.972870    0.677938    0.171426
  Cl     0.074123    2.934059    0.536082
  Cl     0.448435    0.101634    2.840296
  Cs     3.132040    3.708671    2.779269

 Total Charge           Charge          ....    0
 Multiplicity           Mult            ....    1
 Number of Electrons    NEL             ....   82
 Basis Dimension        Dim             ....  190

ORBITAL ENERGIES
----------------

  NO   OCC          E(Eh)            E(eV)
   0   2.0000    -101.850208     -2771.4850
   1   2.0000    -101.836745     -2771.1187
   2   2.0000    -101.832643     -2771.0071
   3   2.0000      -9.491074      -258.2653
   4   2.0000      -9.476876      -257.8789
   5   2.0000      -9.472850      -257.7694
   6   2.0000      -7.220671      -196.4844
   7   2.0000      -7.218179      -196.4166
   8   2.0000      -7.217809      -196.4066
   9   2.0000      -7.206498      -196.0988
  10   2.0000      -7.204076      -196.0329
  11   2.0000      -7.203676      -196.0220
  12   2.0000      -7.202629      -195.9935
  13   2.0000      -7.199875      -195.9185
  14   2.0000      -7.199613      -195.9114
  15   2.0000      -5.538286      -150.7044
  16   2.0000      -3.362411       -91.4959
  17   2.0000      -3.362027       -91.4854
  18   2.0000      -3.360408       -91.4413
  19   2.0000      -1.120122       -30.4801
  20   2.0000      -0.860940       -23.4274
  21   2.0000      -0.857723       -23.3398
  22   2.0000      -0.852503       -23.1978
  23   2.0000      -0.852079       -23.1862
  24   2.0000      -0.850799       -23.1514
  25   2.0000      -0.764927       -20.8147
  26   2.0000      -0.741589       -20.1797
  27   2.0000      -0.734096       -19.9758
  28   2.0000      -0.590194       -16.0600
  29   2.0000      -0.589464       -16.0401
  30   2.0000      -0.585915       -15.9436
  31   2.0000      -0.481149       -13.0927
  32   2.0000      -0.312900        -8.5144
  33   2.0000      -0.305498        -8.3130
  34   2.0000      -0.300585        -8.1793
  35   2.0000      -0.281117        -7.6496
  36   2.0000      -0.277191        -7.5428
  37   2.0000      -0.263654        -7.1744
  38   2.0000      -0.259158        -7.0521
  39   2.0000      -0.254616        -6.9285
  40   2.0000      -0.248354        -6.7580
  41   0.0000      -0.062396        -1.6979
  42   0.0000      -0.015495        -0.4217
  43   0.0000      -0.015455        -0.4205
  44   0.0000      -0.012007        -0.3267
  45   0.0000      -0.007170        -0.1951

MULLIKEN ATOMIC CHARGES
-----------------------
   0 Pb:    0.778912
   1 Cl:   -0.550306
   2 Cl:   -0.530451
   3 Cl:   -0.528322
   4 Cs:    0.830167
Sum of atomic charges:   -0.0000000

LOEWDIN ATOMIC CHARGES
----------------------
   0 Pb:    0.049217
   1 Cl:   -0.226491
   2 Cl:   -0.153097
   3 Cl:   -0.217830
   4 Cs:    0.548201

  Mayer bond orders larger than 0.1
B(  0-Pb,  1-Cl) :   0.6412 B(  0-Pb,  2-Cl) :   0.6736 B(  0-Pb,  3-Cl) :   0.7171
B(  1-Cl,  4-Cs) :   0.1248 B(  2-Cl,  4-Cs) :   0.1229

FINAL SINGLE POINT ENERGY     -1595.063547947772

DIPOLE MOMENT
-------------
                                X             Y             Z
Electronic contribution:     34.57923      50.75213      20.34661
Nuclear contribution   :    -32.33568     -47.49737     -18.62819
                        -----------------------------------------
Total Dipole Moment    :      2.24355       3.25476       1.71842
                        -----------------------------------------
Magnitude (a.u.)       :      4.31044
Magnitude (Debye)      :     10.95628

                             ****ORCA TERMINATED NORMALLY****
TOTAL RUN TIME: 0 days 0 hours 12 minutes 36 seconds 768 msec
