                         Program Version 3.0.3 - RELEASE   -
|  1> ! RIJCOSX RI-B2PLYP D3BJ def2-TZVP ECP{def2-TZVP} TIGHTSCF Grid5 FinalGrid6 SlowConv MORead
|  2> %method
|  3>  RunTyp Gradient
|  4>  end
|  5> %maxcore 1000
|  6> %moinp "previous.gbw"
|  7> *xyz 0 1
|  8> C -2.225900 0.846158 -0.505886
|  9> N -3.487090 0.701699 -1.150080
| 10> H -3.892240 -0.058989 -0.720440
| 11> H -3.270800 0.506891 -2.103500
| 12> H -3.976610 1.611420 -1.065050
| 13> H -1.673370 0.088937 -0.973330
| 14> H -2.191850 0.824603 0.570625
| 15> H -1.626640 1.636340 -0.837816
| 16> Pb -2.907880 -2.637500 -2.339260
| 17> Cl -1.513050 -4.668060 -2.763240
| 18> Cl -2.177350 -0.616631 -3.338730
| 19> Cl -4.019780 -2.380200 -0.125013
| 20> *
| 21>
| 22>                          ****END OF INPUT****

CARTESIAN COORDINATES (ANGSTROEM)
---------------------------------
  C     -2.225900    0.846158   -0.505886
  N     -3.487090    0.701699   -1.150080
  H     -3.892240   -0.058989   -0.720440
  H     -3.270800    0.506891   -2.103500
  H     -3.976610    1.611420   -1.065050
  H     -1.673370    0.088937   -0.973330
  H     -2.191850    0.824603    0.570625
  H     -1.626640    1.636340   -0.837816
  Pb    -2.907880   -2.637500   -2.339260
  Cl    -1.513050   -4.668060   -2.763240
  Cl    -2.177350   -0.616631   -3.338730
  Cl    -4.019780   -2.380200   -0.125013

 Total Charge           Charge          ....    0
 Multiplicity           Mult            ....    1
 Number of Electrons    NEL             ....   92
 Basis Dimension        Dim             ....  259

ORBITAL ENERGIES
----------------

  NO   OCC          E(Eh)            E(eV)
   0   2.0000    -102.875293     -2799.3791
   1   2.0000    -102.847717     -2798.6286
   2   2.0000    -102.814579     -2797.7269
   3   2.0000     -15.000940      -408.1963
   4   2.0000     -10.703695      -291.2623
   5   2.0000      -9.886368      -269.0218
   6   2.0000      -9.856061      -268.1970
   7   2.0000      -9.822010      -267.2705
   8   2.0000      -7.522793      -204.7056
   9   2.0000      -7.521579      -204.6726
  10   2.0000      -7.521284      -204.6645
  11   2.0000      -7.492625      -203.8847
  12   2.0000      -7.491464      -203.8531
  13   2.0000      -7.491261      -203.8476
  14   2.0000      -7.458966      -202.9688
  15   2.0000      -7.457279      -202.9229
  16   2.0000      -7.457090      -202.9177
  17   2.0000      -5.778011      -157.2277
  18   2.0000      -3.550893       -96.6247
  19   2.0000      -3.548669       -96.5642
  20   2.0000      -3.547244       -96.5254
  21   2.0000      -1.214718       -33.0542
  22   2.0000      -0.972963       -26.4757
  23   2.0000      -0.952114       -25.9083
  24   2.0000      -0.947573       -25.7848
  25   2.0000      -0.940770       -25.5996
  26   2.0000      -0.939467       -25.5642
  27   2.0000      -0.897544       -24.4234
  28   2.0000      -0.888159       -24.1680
  29   2.0000      -0.865735       -23.5579
  30   2.0000      -0.830886       -22.6096
  31   2.0000      -0.752533       -20.4775
  32   2.0000      -0.738921       -20.1071
  33   2.0000      -0.636222       -17.3125
  34   2.0000      -0.555404       -15.1133
  35   2.0000      -0.551635       -15.0107
  36   2.0000      -0.517858       -14.0916
  37   2.0000      -0.407938       -11.1006
  38   2.0000      -0.397912       -10.8277
  39   2.0000      -0.386931       -10.5289
  40   2.0000      -0.365824        -9.9546
  41   2.0000      -0.352550        -9.5934
  42   2.0000      -0.349992        -9.5238
  43   2.0000      -0.314116        -8.5475
  44   2.0000      -0.310691        -8.4543
  45   2.0000      -0.237683        -6.4677
  46   0.0000      -0.021065        -0.5732
  47   0.0000       0.000479         0.0130
  48   0.0000       0.057824         1.5735
  49   0.0000       0.064371         1.7516
  50   0.0000       0.067519         1.8373

Dispersion correction            ...

MULLIKEN ATOMIC CHARGES
-----------------------
   0 C :   -0.327843
   1 N :   -0.217863
   2 H :    0.254614
   3 H :    0.269810
   4 H :    0.287459
   5 H :    0.169391
   6 H :    0.174258
   7 H :    0.168853
   8 Pb:    0.747193
   9 Cl:   -0.505190
  10 Cl:   -0.496279
  11 Cl:   -0.524403
Sum of atomic charges:    0.0000000

LOEWDIN ATOMIC CHARGES
----------------------
   0 C :   -0.323952
   1 N :    0.157430
   2 H :    0.149711
   3 H :    0.136323
   4 H :    0.215073
   5 H :    0.120706
   6 H :    0.129747
   7 H :    0.121343
   8 Pb:   -0.216363
   9 Cl:   -0.198099
  10 Cl:   -0.079702
  11 Cl:   -0.212219

  Mayer bond orders larger than 0.1
B(  0-C ,  1-N ) :   0.8971 B(  0-C ,  5-H ) :   0.9423 B(  0-C ,  6-H ) :   0.9410
B(  0-C ,  7-H ) :   0.9578 B(  1-N ,  2-H ) :   0.8327 B(  1-N ,  3-H ) :   0.7903
B(  1-N ,  4-H ) :   0.8735 B(  2-H , 11-Cl) :   0.1741 B(  3-H , 10-Cl) :   0.2033
B(  8-Pb,  9-Cl) :   0.7885 B(  8-Pb, 10-Cl) :   0.5594 B(  8-Pb, 11-Cl) :   0.5943

MP2 TOTAL ENERGY:    -1669.533964025 Eh
Dispersion correction           -0.013497411
FINAL SINGLE POINT ENERGY     -1669.547461435828

DIPOLE MOMENT
-------------
                                X             Y             Z
Electronic contribution:    -16.65753     -66.28647     -39.67366
Nuclear contribution   :     15.64358      70.88864      40.67892
                        -----------------------------------------
Total Dipole Moment    :     -1.01395       4.60217       1.00526
                        -----------------------------------------
Magnitude (a.u.)       :      4.81857
Magnitude (Debye)      :     12.24782

                             ****ORCA TERMINATED NORMALLY****
TOTAL RUN TIME: 0 days 0 hours 17 minutes 15 seconds 17 msec
