                         Program Version 3.0.3 - RELEASE   -
|  1> ! PW6B95 def2-TZVP GCP(DFT/TZ) ECP{def2-TZVP} Grid7 MORead
|  2> %pal nprocs 2 end
|  3> %method
|  4>  RunTyp Gradient
|  5>  end
|  6> %maxcore 2000
|  7> %moinp "previous.gbw"
|  8> *xyz 0 1
|  9> Pb 0.343781 0.361330 0.399011
| 10> Cl 2.751704 -0.284858 0.959153
| 11> Cl 0.980958 2.695729 -0.496451
| 12> Cl -0.033535 1.344511 2.776488
| 13> Cs 3.146039 3.758284 2.789296
| 14> *
| 15>
| 16>                          ****END OF INPUT****

CARTESIAN COORDINATES (ANGSTROEM)
---------------------------------
  Pb     0.343781    0.361330    0.399011
  Cl     2.751704   -0.284858    0.959153
  Cl     0.980958    2.695729   -0.496451
  Cl    -0.033535    1.344511    2.776488
  Cs     3.146039    3.758284    2.789296

 Total Charge           Charge          ....    0
 Multiplicity           Mult            ....    1
 Number of Electrons    NEL             ....   82
 Basis Dimension        Dim             ....  190

ORBITAL ENERGIES
----------------

  NO   OCC          E(Eh)            E(eV)
   0   2.0000    -101.840738     -2771.2274
   1   2.0000    -101.839510     -2771.1939
   2   2.0000    -101.837503     -2771.1393
   3   2.0000      -9.481226      -257.9973
   4   2.0000      -9.479910      -257.9615
   5   2.0000      -9.478019      -257.9100
   6   2.0000      -7.210826      -196.2165
   7   2.0000      -7.209506      -196.1806
   8   2.0000      -7.208373      -196.1498
   9   2.0000      -7.208002      -196.1397
  10   2.0000      -7.207714      -196.1319
  11   2.0000      -7.207100      -196.1152
  12   2.0000      -7.206677      -196.1037
  13   2.0000      -7.205051      -196.0594
  14   2.0000      -7.204782      -196.0521
  15   2.0000      -5.534740      -150.6079
  16   2.0000      -3.358888       -91.4000
  17   2.0000      -3.358345       -91.3852
  18   2.0000      -3.357032       -91.3495
  19   2.0000      -1.123436       -30.5702
  20   2.0000      -0.856412       -23.3041
  21   2.0000      -0.856058       -23.2945
  22   2.0000      -0.848958       -23.1013
  23   2.0000      -0.848727       -23.0950
  24   2.0000      -0.847543       -23.0628
  25   2.0000      -0.761135       -20.7115
  26   2.0000      -0.740228       -20.1426
  27   2.0000      -0.738283       -20.0897
  28   2.0000      -0.593260       -16.1434
  29   2.0000      -0.592753       -16.1296
  30   2.0000      -0.589304       -16.0358
  31   2.0000      -0.478867       -13.0306
  32   2.0000      -0.308735        -8.4011
  33   2.0000      -0.307318        -8.3625
  34   2.0000      -0.296897        -8.0790
  35   2.0000      -0.279080        -7.5942
  36   2.0000      -0.277645        -7.5551
  37   2.0000      -0.262510        -7.1433
  38   2.0000      -0.261629        -7.1193
  39   2.0000      -0.258899        -7.0450
  40   2.0000      -0.245606        -6.6833
  41   0.0000      -0.064302        -1.7497
  42   0.0000      -0.016594        -0.4515
  43   0.0000      -0.016550        -0.4503
  44   0.0000      -0.013098        -0.3564
  45   0.0000      -0.005740        -0.1562

MULLIKEN ATOMIC CHARGES
-----------------------
   0 Pb:    0.775329
   1 Cl:   -0.524525
   2 Cl:   -0.539495
   3 Cl:   -0.545259
   4 Cs:    0.833950
Sum of atomic charges:   -0.0000000

LOEWDIN ATOMIC CHARGES
----------------------
   0 Pb:    0.026513
   1 Cl:   -0.192494
   2 Cl:   -0.195739
   3 Cl:   -0.203766
   4 Cs:    0.565487

  Mayer bond orders larger than 0.1
B(  0-Pb,  1-Cl) :   0.7215 B(  0-Pb,  2-Cl) :   0.6682 B(  0-Pb,  3-Cl) :   0.6491
B(  2-Cl,  4-Cs) :   0.1129 B(  3-Cl,  4-Cs) :   0.1243

FINAL SINGLE POINT ENERGY     -1595.062871228226

DIPOLE MOMENT
-------------
                                X             Y             Z
Electronic contribution:     31.05701      49.13357      31.22421
Nuclear contribution   :    -28.72761     -45.97417     -29.13078
                        -----------------------------------------
Total Dipole Moment    :      2.32940       3.15941       2.09342
                        -----------------------------------------
Magnitude (a.u.)       :      4.44864
Magnitude (Debye)      :     11.30754

                             ****ORCA TERMINATED NORMALLY****
TOTAL RUN TIME: 0 days 0 hours 12 minutes 45 seconds 800 msec
