                         Program Version 3.0.3 - RELEASE   -
|  1> ! RIJCOSX RI-B2PLYP D3BJ def2-TZVP ECP{def2-TZVP} TIGHTSCF Grid5 FinalGrid6 MORead
|  2> %method
|  3>  RunTyp Gradient
|  4>  end
|  5> %maxcore 1000
|  6> %moinp "previous.gbw"
|  7> *xyz -2 1
|  8> C 2.821971 3.493173 2.716929
|  9> N 2.031893 2.485380 2.005967
| 10> H 3.493737 3.003675 3.431461
| 11> H 2.156449 4.174155 3.259759
| 12> H 3.419280 4.070497 2.001994
| 13> H 1.424368 1.881241 2.639320
| 14> H 2.617127 1.787701 1.451958
| 15> H 1.353302 2.890520 1.291746
| 16> Pb 0.059661 0.029237 0.153555
| 17> Cl 3.203789 0.276995 0.315486
| 18> Cl -0.031788 3.013782 -0.159177
| 19> Cl 0.149262 0.507842 3.214664
| 20> Cl -2.978749 -0.365226 0.127751
| 21> Cl -0.003248 -0.502150 -2.809873
| 22> Cl 0.236834 -3.065602 0.496451
| 23> N -1.884966 -2.527607 -1.578982
| 24> C -2.664881 -3.549172 -2.281400
| 25> H -2.474954 -1.829497 -1.031708
| 26> H -1.279571 -1.925402 -2.215561
| 27> H -3.259633 -4.123288 -1.561779
| 28> H -1.991792 -4.230944 -2.813775
| 29> H -3.338231 -3.073756 -3.003955
| 30> H -1.204879 -2.923566 -0.859634
| 31> *
| 32>
| 33>                          ****END OF INPUT****

CARTESIAN COORDINATES (ANGSTROEM)
---------------------------------
  C      2.821971    3.493173    2.716929
  N      2.031893    2.485380    2.005967
  H      3.493737    3.003675    3.431461
  H      2.156449    4.174155    3.259759
  H      3.419280    4.070497    2.001994
  H      1.424368    1.881241    2.639320
  H      2.617127    1.787701    1.451958
  H      1.353302    2.890520    1.291746
  Pb     0.059661    0.029237    0.153555
  Cl     3.203789    0.276995    0.315486
  Cl    -0.031788    3.013782   -0.159177
  Cl     0.149262    0.507842    3.214664
  Cl    -2.978749   -0.365226    0.127751
  Cl    -0.003248   -0.502150   -2.809873
  Cl     0.236834   -3.065602    0.496451
  N     -1.884966   -2.527607   -1.578982
  C     -2.664881   -3.549172   -2.281400
  H     -2.474954   -1.829497   -1.031708
  H     -1.279571   -1.925402   -2.215561
  H     -3.259633   -4.123288   -1.561779
  H     -1.991792   -4.230944   -2.813775
  H     -3.338231   -3.073756   -3.003955
  H     -1.204879   -2.923566   -0.859634

 Total Charge           Charge          ....   -2
 Multiplicity           Mult            ....    1
 Number of Electrons    NEL             ....  164
 Basis Dimension        Dim             ....  468

ORBITAL ENERGIES
----------------

  NO   OCC          E(Eh)            E(eV)
   0   2.0000    -102.586018     -2791.5075
   1   2.0000    -102.584788     -2791.4740
   2   2.0000    -102.584540     -2791.4672
   3   2.0000    -102.578402     -2791.3002
   4   2.0000    -102.575877     -2791.2315
   5   2.0000    -102.575864     -2791.2312
   6   2.0000     -14.688352      -399.6904
   7   2.0000     -14.687752      -399.6740
   8   2.0000     -10.489355      -285.4299
   9   2.0000     -10.489065      -285.4220
  10   2.0000      -9.592731      -261.0315
  11   2.0000      -9.591681      -261.0029
  12   2.0000      -9.591269      -260.9917
  13   2.0000      -9.585163      -260.8255
  14   2.0000      -9.582481      -260.7526
  15   2.0000      -9.582418      -260.7509
  16   2.0000      -7.229181      -196.7160
  17   2.0000      -7.228856      -196.7072
  18   2.0000      -7.228199      -196.6893
  19   2.0000      -7.228070      -196.6858
  20   2.0000      -7.227852      -196.6799
  21   2.0000      -7.227714      -196.6761
  22   2.0000      -7.227402      -196.6676
  23   2.0000      -7.227131      -196.6602
  24   2.0000      -7.226734      -196.6494
  25   2.0000      -7.221527      -196.5077
  26   2.0000      -7.221365      -196.5033
  27   2.0000      -7.220652      -196.4839
  28   2.0000      -7.218852      -196.4350
  29   2.0000      -7.218776      -196.4329
  30   2.0000      -7.218702      -196.4309
  31   2.0000      -7.218665      -196.4299
  32   2.0000      -7.217985      -196.4113
  33   2.0000      -7.217926      -196.4098
  34   2.0000      -5.560689      -151.3140
  35   2.0000      -3.331244       -90.6478
  36   2.0000      -3.330699       -90.6329
  37   2.0000      -3.330503       -90.6276
  38   2.0000      -0.877460       -23.8769
  39   2.0000      -0.877362       -23.8742
  40   2.0000      -0.719771       -19.5860
  41   2.0000      -0.719684       -19.5836
  42   2.0000      -0.718450       -19.5500
  43   2.0000      -0.717277       -19.5181
  44   2.0000      -0.717020       -19.5111
  45   2.0000      -0.633169       -17.2294
  46   2.0000      -0.632078       -17.1997
  47   2.0000      -0.603900       -16.4330
  48   2.0000      -0.603639       -16.4258
  49   2.0000      -0.599608       -16.3162
  50   2.0000      -0.596199       -16.2234
  51   2.0000      -0.592932       -16.1345
  52   2.0000      -0.590527       -16.0691
  53   2.0000      -0.408922       -11.1273
  54   2.0000      -0.408637       -11.1196
  55   2.0000      -0.408222       -11.1083
  56   2.0000      -0.407989       -11.1019
  57   2.0000      -0.360827        -9.8186
  58   2.0000      -0.360565        -9.8115
  59   2.0000      -0.290538        -7.9059
  60   2.0000      -0.289357        -7.8738
  61   2.0000      -0.288722        -7.8565
  62   2.0000      -0.288647        -7.8545
  63   2.0000      -0.288416        -7.8482
  64   2.0000      -0.115880        -3.1533
  65   2.0000      -0.110600        -3.0096
  66   2.0000      -0.109038        -2.9671
  67   2.0000      -0.098225        -2.6728
  68   2.0000      -0.091082        -2.4785
  69   2.0000      -0.087828        -2.3899
  70   2.0000      -0.087159        -2.3717
  71   2.0000      -0.082946        -2.2571
  72   2.0000      -0.082021        -2.2319
  73   2.0000      -0.081508        -2.2179
  74   2.0000      -0.079980        -2.1764
  75   2.0000      -0.078843        -2.1454
  76   2.0000      -0.078475        -2.1354
  77   2.0000      -0.076996        -2.0952
  78   2.0000      -0.075366        -2.0508
  79   2.0000      -0.072741        -1.9794
  80   2.0000      -0.069266        -1.8848
  81   2.0000      -0.043470        -1.1829
  82   0.0000       0.241816         6.5802
  83   0.0000       0.242471         6.5980
  84   0.0000       0.257824         7.0157
  85   0.0000       0.263429         7.1683
  86   0.0000       0.264246         7.1905

Dispersion correction            ...

MULLIKEN ATOMIC CHARGES
-----------------------
   0 C :   -0.269603
   1 N :   -0.290215
   2 H :    0.119365
   3 H :    0.117067
   4 H :    0.118812
   5 H :    0.261906
   6 H :    0.262095
   7 H :    0.259705
   8 Pb:    1.029341
   9 Cl:   -0.709485
  10 Cl:   -0.689678
  11 Cl:   -0.701291
  12 Cl:   -0.691865
  13 Cl:   -0.689361
  14 Cl:   -0.704889
  15 N :   -0.292379
  16 C :   -0.270029
  17 H :    0.265870
  18 H :    0.259653
  19 H :    0.119109
  20 H :    0.118868
  21 H :    0.116458
  22 H :    0.260545
Sum of atomic charges:   -2.0000000

LOEWDIN ATOMIC CHARGES
----------------------
   0 C :   -0.340280
   1 N :    0.032352
   2 H :    0.112417
   3 H :    0.111262
   4 H :    0.111930
   5 H :    0.128335
   6 H :    0.130931
   7 H :    0.136894
   8 Pb:    0.148402
   9 Cl:   -0.528383
  10 Cl:   -0.478244
  11 Cl:   -0.504419
  12 Cl:   -0.482612
  13 Cl:   -0.479286
  14 Cl:   -0.516511
  15 N :    0.030897
  16 C :   -0.340936
  17 H :    0.124630
  18 H :    0.135384
  19 H :    0.112157
  20 H :    0.111873
  21 H :    0.111118
  22 H :    0.132088

  Mayer bond orders larger than 0.1
B(  0-C ,  1-N ) :   0.9404 B(  0-C ,  2-H ) :   0.9609 B(  0-C ,  3-H ) :   0.9603
B(  0-C ,  4-H ) :   0.9601 B(  1-N ,  5-H ) :   0.7391 B(  1-N ,  6-H ) :   0.7403
B(  1-N ,  7-H ) :   0.7577 B(  5-H , 11-Cl) :   0.2728 B(  6-H ,  9-Cl) :   0.2741
B(  7-H , 10-Cl) :   0.2473 B(  8-Pb,  9-Cl) :   0.2440 B(  8-Pb, 10-Cl) :   0.3000
B(  8-Pb, 11-Cl) :   0.2556 B(  8-Pb, 12-Cl) :   0.2733 B(  8-Pb, 13-Cl) :   0.2960
B(  8-Pb, 14-Cl) :   0.2519 B( 12-Cl, 17-H ) :   0.2705 B( 13-Cl, 18-H ) :   0.2527
B( 14-Cl, 22-H ) :   0.2721 B( 15-N , 16-C ) :   0.9409 B( 15-N , 17-H ) :   0.7369
B( 15-N , 18-H ) :   0.7542 B( 15-N , 22-H ) :   0.7423 B( 16-C , 19-H ) :   0.9603
B( 16-C , 20-H ) :   0.9603 B( 16-C , 21-H ) :   0.9607

MP2 TOTAL ENERGY:    -3146.564328800 Eh
Dispersion correction           -0.027897763
FINAL SINGLE POINT ENERGY     -3146.592226563399

DIPOLE MOMENT
-------------
                                X             Y             Z
Electronic contribution:     -2.91691       4.93737      -4.69052
Nuclear contribution   :      2.62808      -4.68757       4.50133
                        -----------------------------------------
Total Dipole Moment    :     -0.28882       0.24980      -0.18919
                        -----------------------------------------
Magnitude (a.u.)       :      0.42616
Magnitude (Debye)      :      1.08322

                             ****ORCA TERMINATED NORMALLY****
TOTAL RUN TIME: 0 days 0 hours 31 minutes 52 seconds 14 msec
