                         Program Version 3.0.3 - RELEASE   -
|  1> ! RIJCOSX RI-B2PLYP D3BJ def2-TZVP ECP{def2-TZVP} TIGHTSCF Grid5 FinalGrid6 SlowConv MORead
|  2> %method
|  3>  RunTyp Gradient
|  4>  end
|  5> %maxcore 1000
|  6> %moinp "previous.gbw"
|  7> *xyz 0 1
|  8> C -0.394281 0.276013 -0.426662
|  9> N -1.165380 -0.685592 -1.253010
| 10> H 0.248796 -0.278576 0.260517
| 11> H -1.090820 0.897444 0.140826
| 12> H 0.215705 0.904875 -1.079130
| 13> H -1.783150 -1.324970 -0.698370
| 14> H -0.582260 -1.326300 -1.835140
| 15> H -1.813140 -0.240924 -1.938260
| 16> Pb -2.952340 -2.965230 -2.970500
| 17> Cl -0.669887 -2.890000 -2.788010
| 18> Cl -3.336060 -0.725554 -2.842520
| 19> Cl -3.109480 -2.971000 -0.560211
| 20> *
| 21>
| 22>                          ****END OF INPUT****

CARTESIAN COORDINATES (ANGSTROEM)
---------------------------------
  C     -0.394281    0.276013   -0.426662
  N     -1.165380   -0.685592   -1.253010
  H      0.248796   -0.278576    0.260517
  H     -1.090820    0.897444    0.140826
  H      0.215705    0.904875   -1.079130
  H     -1.783150   -1.324970   -0.698370
  H     -0.582260   -1.326300   -1.835140
  H     -1.813140   -0.240924   -1.938260
  Pb    -2.952340   -2.965230   -2.970500
  Cl    -0.669887   -2.890000   -2.788010
  Cl    -3.336060   -0.725554   -2.842520
  Cl    -3.109480   -2.971000   -0.560211

 Total Charge           Charge          ....    0
 Multiplicity           Mult            ....    1
 Number of Electrons    NEL             ....   92
 Basis Dimension        Dim             ....  259

ORBITAL ENERGIES
----------------

  NO   OCC          E(Eh)            E(eV)
   0   2.0000    -102.869450     -2799.2200
   1   2.0000    -102.867987     -2799.1802
   2   2.0000    -102.845748     -2798.5751
   3   2.0000     -14.928139      -406.2153
   4   2.0000     -10.695354      -291.0354
   5   2.0000      -9.881804      -268.8976
   6   2.0000      -9.880850      -268.8716
   7   2.0000      -9.855182      -268.1731
   8   2.0000      -7.518841      -204.5981
   9   2.0000      -7.517859      -204.5713
  10   2.0000      -7.516739      -204.5409
  11   2.0000      -7.516275      -204.5282
  12   2.0000      -7.515730      -204.5134
  13   2.0000      -7.515233      -204.4999
  14   2.0000      -7.492350      -203.8772
  15   2.0000      -7.490462      -203.8258
  16   2.0000      -7.489924      -203.8112
  17   2.0000      -5.773704      -157.1105
  18   2.0000      -3.546372       -96.5017
  19   2.0000      -3.546118       -96.4948
  20   2.0000      -3.543089       -96.4124
  21   2.0000      -1.122953       -30.5571
  22   2.0000      -0.988959       -26.9109
  23   2.0000      -0.975457       -26.5435
  24   2.0000      -0.940502       -25.5924
  25   2.0000      -0.938194       -25.5296
  26   2.0000      -0.936023       -25.4705
  27   2.0000      -0.929755       -25.2999
  28   2.0000      -0.873914       -23.7804
  29   2.0000      -0.857081       -23.3224
  30   2.0000      -0.843164       -22.9437
  31   2.0000      -0.654657       -17.8141
  32   2.0000      -0.649994       -17.6872
  33   2.0000      -0.588126       -16.0037
  34   2.0000      -0.570043       -15.5117
  35   2.0000      -0.513370       -13.9695
  36   2.0000      -0.509169       -13.8552
  37   2.0000      -0.417098       -11.3498
  38   2.0000      -0.409234       -11.1358
  39   2.0000      -0.395438       -10.7604
  40   2.0000      -0.378917       -10.3108
  41   2.0000      -0.365915        -9.9571
  42   2.0000      -0.361771        -9.8443
  43   2.0000      -0.341291        -9.2870
  44   2.0000      -0.334986        -9.1154
  45   2.0000      -0.284352        -7.7376
  46   0.0000       0.035253         0.9593
  47   0.0000       0.044906         1.2220
  48   0.0000       0.049246         1.3400
  49   0.0000       0.058833         1.6009
  50   0.0000       0.103807         2.8247

Dispersion correction            ...

MULLIKEN ATOMIC CHARGES
-----------------------
   0 C :   -0.276778
   1 N :   -0.323004
   2 H :    0.155600
   3 H :    0.155758
   4 H :    0.152265
   5 H :    0.277209
   6 H :    0.283869
   7 H :    0.281130
   8 Pb:    0.710781
   9 Cl:   -0.462247
  10 Cl:   -0.462811
  11 Cl:   -0.491772
Sum of atomic charges:   -0.0000000

LOEWDIN ATOMIC CHARGES
----------------------
   0 C :   -0.302375
   1 N :    0.041971
   2 H :    0.124566
   3 H :    0.124474
   4 H :    0.123100
   5 H :    0.153328
   6 H :    0.115561
   7 H :    0.119078
   8 Pb:   -0.430715
   9 Cl:    0.020299
  10 Cl:    0.030171
  11 Cl:   -0.119457

  Mayer bond orders larger than 0.1
B(  0-C ,  1-N ) :   0.8926 B(  0-C ,  2-H ) :   0.9549 B(  0-C ,  3-H ) :   0.9545
B(  0-C ,  4-H ) :   0.9551 B(  1-N ,  5-H ) :   0.8046 B(  1-N ,  6-H ) :   0.7690
B(  1-N ,  7-H ) :   0.7778 B(  5-H , 11-Cl) :   0.1670 B(  6-H ,  9-Cl) :   0.1820
B(  7-H , 10-Cl) :   0.1713 B(  8-Pb,  9-Cl) :   0.6834 B(  8-Pb, 10-Cl) :   0.6924
B(  8-Pb, 11-Cl) :   0.6805

MP2 TOTAL ENERGY:    -1669.557623919 Eh
Dispersion correction           -0.015352270
FINAL SINGLE POINT ENERGY     -1669.572976189526

DIPOLE MOMENT
-------------
                                X             Y             Z
Electronic contribution:    -66.15880     -85.51894     -80.18198
Nuclear contribution   :     67.33676      86.97095      80.50018
                        -----------------------------------------
Total Dipole Moment    :      1.17796       1.45201       0.31820
                        -----------------------------------------
Magnitude (a.u.)       :      1.89662
Magnitude (Debye)      :      4.82082

                             ****ORCA TERMINATED NORMALLY****
TOTAL RUN TIME: 0 days 0 hours 14 minutes 16 seconds 689 msec
