                         Program Version 3.0.3 - RELEASE   -
|  1> ! RIJCOSX RI-B2PLYP D3BJ def2-TZVP ECP{def2-TZVP} TIGHTSCF Grid5 FinalGrid6 SlowConv MORead
|  2> %method
|  3>  RunTyp Gradient
|  4>  end
|  5> %maxcore 1000
|  6> %moinp "previous.gbw"
|  7> *xyz 0 1
|  8> C -3.353160 0.471060 -0.715749
|  9> N -2.136600 1.103760 -1.408060
| 10> H -2.181230 2.107870 -1.469810
| 11> H -2.157320 0.755496 -2.351200
| 12> H -1.248910 0.864355 -1.035650
| 13> H -4.280310 0.655423 -1.272620
| 14> H -3.475570 0.863421 0.245545
| 15> H -3.219710 -0.558252 -0.356821
| 16> Pb -2.907190 -2.637050 -2.273560
| 17> Cl -1.410560 -4.452810 -3.023820
| 18> Cl -2.433910 -0.500496 -3.321160
| 19> Cl -4.023460 -2.748220 -0.061459
| 20> *
| 21>
| 22>                          ****END OF INPUT****

CARTESIAN COORDINATES (ANGSTROEM)
---------------------------------
  C     -3.353160    0.471060   -0.715749
  N     -2.136600    1.103760   -1.408060
  H     -2.181230    2.107870   -1.469810
  H     -2.157320    0.755496   -2.351200
  H     -1.248910    0.864355   -1.035650
  H     -4.280310    0.655423   -1.272620
  H     -3.475570    0.863421    0.245545
  H     -3.219710   -0.558252   -0.356821
  Pb    -2.907190   -2.637050   -2.273560
  Cl    -1.410560   -4.452810   -3.023820
  Cl    -2.433910   -0.500496   -3.321160
  Cl    -4.023460   -2.748220   -0.061459

 Total Charge           Charge          ....    0
 Multiplicity           Mult            ....    1
 Number of Electrons    NEL             ....   92
 Basis Dimension        Dim             ....  259

ORBITAL ENERGIES
----------------

  NO   OCC          E(Eh)            E(eV)
   0   2.0000    -102.867737     -2799.1734
   1   2.0000    -102.828012     -2798.0925
   2   2.0000    -102.817635     -2797.8101
   3   2.0000     -14.983639      -407.7255
   4   2.0000     -10.709149      -291.4108
   5   2.0000      -9.881361      -268.8855
   6   2.0000      -9.836705      -267.6703
   7   2.0000      -9.825437      -267.3637
   8   2.0000      -7.517614      -204.5647
   9   2.0000      -7.516490      -204.5341
  10   2.0000      -7.515916      -204.5185
  11   2.0000      -7.473212      -203.3564
  12   2.0000      -7.472132      -203.3270
  13   2.0000      -7.471857      -203.3196
  14   2.0000      -7.462254      -203.0583
  15   2.0000      -7.460816      -203.0191
  16   2.0000      -7.460484      -203.0101
  17   2.0000      -5.777153      -157.2043
  18   2.0000      -3.550873       -96.6242
  19   2.0000      -3.547739       -96.5389
  20   2.0000      -3.545691       -96.4832
  21   2.0000      -1.178978       -32.0816
  22   2.0000      -0.968840       -26.3635
  23   2.0000      -0.949741       -25.8438
  24   2.0000      -0.948280       -25.8040
  25   2.0000      -0.940155       -25.5829
  26   2.0000      -0.938806       -25.5462
  27   2.0000      -0.908386       -24.7184
  28   2.0000      -0.879907       -23.9435
  29   2.0000      -0.849900       -23.1269
  30   2.0000      -0.834207       -22.6999
  31   2.0000      -0.715622       -19.4731
  32   2.0000      -0.708845       -19.2887
  33   2.0000      -0.614993       -16.7348
  34   2.0000      -0.556406       -15.1406
  35   2.0000      -0.547395       -14.8954
  36   2.0000      -0.505607       -13.7583
  37   2.0000      -0.405569       -11.0361
  38   2.0000      -0.390337       -10.6216
  39   2.0000      -0.384222       -10.4552
  40   2.0000      -0.359554        -9.7840
  41   2.0000      -0.335875        -9.1396
  42   2.0000      -0.330219        -8.9857
  43   2.0000      -0.317368        -8.6360
  44   2.0000      -0.314883        -8.5684
  45   2.0000      -0.234361        -6.3773
  46   0.0000      -0.031063        -0.8453
  47   0.0000      -0.000886        -0.0241
  48   0.0000       0.055753         1.5171
  49   0.0000       0.063501         1.7280
  50   0.0000       0.067125         1.8266

Dispersion correction            ...

MULLIKEN ATOMIC CHARGES
-----------------------
   0 C :   -0.289018
   1 N :   -0.293642
   2 H :    0.271622
   3 H :    0.270309
   4 H :    0.278542
   5 H :    0.180636
   6 H :    0.162217
   7 H :    0.162947
   8 Pb:    0.769159
   9 Cl:   -0.500160
  10 Cl:   -0.493369
  11 Cl:   -0.519242
Sum of atomic charges:   -0.0000000

LOEWDIN ATOMIC CHARGES
----------------------
   0 C :   -0.299947
   1 N :    0.108239
   2 H :    0.183014
   3 H :    0.026723
   4 H :    0.180347
   5 H :    0.136013
   6 H :    0.113331
   7 H :    0.120122
   8 Pb:   -0.166377
   9 Cl:   -0.179444
  10 Cl:   -0.019705
  11 Cl:   -0.202315

  Mayer bond orders larger than 0.1
B(  0-C ,  1-N ) :   0.8375 B(  0-C ,  5-H ) :   0.9416 B(  0-C ,  6-H ) :   0.9556
B(  0-C ,  7-H ) :   0.8956 B(  1-N ,  2-H ) :   0.8864 B(  1-N ,  3-H ) :   0.6904
B(  1-N ,  4-H ) :   0.8935 B(  3-H , 10-Cl) :   0.3184 B(  7-H , 11-Cl) :   0.1346
B(  8-Pb,  9-Cl) :   0.7957 B(  8-Pb, 10-Cl) :   0.4737 B(  8-Pb, 11-Cl) :   0.6480

MP2 TOTAL ENERGY:    -1669.505059500 Eh
Dispersion correction           -0.013410914
FINAL SINGLE POINT ENERGY     -1669.518470414294

DIPOLE MOMENT
-------------
                                X             Y             Z
Electronic contribution:    -15.56362     -66.15342     -28.88637
Nuclear contribution   :     15.81896      70.94517      29.75527
                        -----------------------------------------
Total Dipole Moment    :      0.25534       4.79175       0.86889
                        -----------------------------------------
Magnitude (a.u.)       :      4.87658
Magnitude (Debye)      :     12.39528

                             ****ORCA TERMINATED NORMALLY****
TOTAL RUN TIME: 0 days 0 hours 21 minutes 48 seconds 112 msec
