                         Program Version 3.0.3 - RELEASE   -
|  1> ! PW6B95 def2-TZVP GCP(DFT/TZ) ECP{def2-TZVP} Grid7 MORead
|  2> %pal nprocs 2 end
|  3> %method
|  4>  RunTyp Gradient
|  5>  end
|  6> %maxcore 2000
|  7> %moinp "previous.gbw"
|  8> *xyz 0 1
|  9> Pb 0.304661 0.300955 0.345748
| 10> Cl 2.889561 0.438917 0.150137
| 11> Cl 0.060204 2.864983 0.020179
| 12> Cl 0.404872 0.564213 2.926369
| 13> Cs 2.547201 3.023124 2.238377
| 14> *
| 15>
| 16>                          ****END OF INPUT****

CARTESIAN COORDINATES (ANGSTROEM)
---------------------------------
  Pb     0.304661    0.300955    0.345748
  Cl     2.889561    0.438917    0.150137
  Cl     0.060204    2.864983    0.020179
  Cl     0.404872    0.564213    2.926369
  Cs     2.547201    3.023124    2.238377

 Total Charge           Charge          ....    0
 Multiplicity           Mult            ....    1
 Number of Electrons    NEL             ....   82
 Basis Dimension        Dim             ....  190

ORBITAL ENERGIES
----------------

  NO   OCC          E(Eh)            E(eV)
   0   2.0000    -101.865549     -2771.9025
   1   2.0000    -101.865406     -2771.8986
   2   2.0000    -101.865395     -2771.8983
   3   2.0000      -9.506234      -258.6778
   4   2.0000      -9.506091      -258.6739
   5   2.0000      -9.506080      -258.6736
   6   2.0000      -7.235832      -196.8970
   7   2.0000      -7.235691      -196.8932
   8   2.0000      -7.235681      -196.8929
   9   2.0000      -7.233348      -196.8294
  10   2.0000      -7.233204      -196.8255
  11   2.0000      -7.233192      -196.8252
  12   2.0000      -7.232981      -196.8194
  13   2.0000      -7.232838      -196.8155
  14   2.0000      -7.232825      -196.8152
  15   2.0000      -5.562423      -151.3612
  16   2.0000      -3.386187       -92.1428
  17   2.0000      -3.386170       -92.1424
  18   2.0000      -3.384911       -92.1081
  19   2.0000      -1.077686       -29.3253
  20   2.0000      -0.883237       -24.0341
  21   2.0000      -0.883214       -24.0335
  22   2.0000      -0.876328       -23.8461
  23   2.0000      -0.876325       -23.8460
  24   2.0000      -0.875582       -23.8258
  25   2.0000      -0.788638       -21.4599
  26   2.0000      -0.767418       -20.8825
  27   2.0000      -0.767332       -20.8802
  28   2.0000      -0.549117       -14.9422
  29   2.0000      -0.548725       -14.9316
  30   2.0000      -0.548723       -14.9315
  31   2.0000      -0.505757       -13.7624
  32   2.0000      -0.333424        -9.0729
  33   2.0000      -0.333378        -9.0717
  34   2.0000      -0.319813        -8.7026
  35   2.0000      -0.305581        -8.3153
  36   2.0000      -0.305521        -8.3137
  37   2.0000      -0.290697        -7.9103
  38   2.0000      -0.290679        -7.9098
  39   2.0000      -0.285439        -7.7672
  40   2.0000      -0.272986        -7.4283
  41   0.0000      -0.037230        -1.0131
  42   0.0000      -0.022115        -0.6018
  43   0.0000      -0.021900        -0.5959
  44   0.0000      -0.019711        -0.5364
  45   0.0000       0.001177         0.0320

MULLIKEN ATOMIC CHARGES
-----------------------
   0 Pb:    0.748508
   1 Cl:   -0.508696
   2 Cl:   -0.509615
   3 Cl:   -0.509511
   4 Cs:    0.779314
Sum of atomic charges:   -0.0000000

LOEWDIN ATOMIC CHARGES
----------------------
   0 Pb:    0.122373
   1 Cl:   -0.134007
   2 Cl:   -0.134013
   3 Cl:   -0.133589
   4 Cs:    0.279236

  Mayer bond orders larger than 0.1
B(  0-Pb,  1-Cl) :   0.6781 B(  0-Pb,  2-Cl) :   0.6766 B(  0-Pb,  3-Cl) :   0.6767
B(  1-Cl,  4-Cs) :   0.1428 B(  2-Cl,  4-Cs) :   0.1435 B(  3-Cl,  4-Cs) :   0.1438

FINAL SINGLE POINT ENERGY     -1595.088309891845

DIPOLE MOMENT
-------------
                                X             Y             Z
Electronic contribution:     18.09717      21.91414      15.28242
Nuclear contribution   :    -16.92994     -20.49948     -14.29603
                        -----------------------------------------
Total Dipole Moment    :      1.16723       1.41466       0.98640
                        -----------------------------------------
Magnitude (a.u.)       :      2.08246
Magnitude (Debye)      :      5.29320

                             ****ORCA TERMINATED NORMALLY****
TOTAL RUN TIME: 0 days 0 hours 13 minutes 6 seconds 628 msec
