                         Program Version 3.0.3 - RELEASE   -
|  1> ! RIJCOSX RI-B2PLYP D3BJ def2-TZVP ECP{def2-TZVP} TIGHTSCF Grid5 FinalGrid6 MORead
|  2> %method
|  3>  RunTyp Gradient
|  4>  end
|  5> %maxcore 1000
|  6> %moinp "previous.gbw"
|  7> *xyz -2 1
|  8> C 2.821971 3.493173 2.716929
|  9> N 2.031893 2.485380 2.005967
| 10> H 3.493737 3.003675 3.431461
| 11> H 2.156449 4.174155 3.259759
| 12> H 3.419280 4.070497 2.001994
| 13> H 1.424368 1.881241 2.639320
| 14> H 2.617127 1.787701 1.451958
| 15> H 1.353302 2.890520 1.291746
| 16> Pb 0.081254 -0.034771 0.238760
| 17> Cl 3.121317 0.245915 0.277306
| 18> Cl -0.009953 3.026775 -0.127725
| 19> Cl 0.140899 0.515531 3.240287
| 20> Cl -3.006685 -0.292563 0.175673
| 21> Cl 0.044561 -0.517572 -2.855436
| 22> Cl 0.202499 -3.098124 0.532653
| 23> N -1.884966 -2.527607 -1.578982
| 24> C -2.664881 -3.549172 -2.281400
| 25> H -2.474954 -1.829497 -1.031708
| 26> H -1.279571 -1.925402 -2.215561
| 27> H -3.259633 -4.123288 -1.561779
| 28> H -1.991792 -4.230944 -2.813775
| 29> H -3.338231 -3.073756 -3.003955
| 30> H -1.204879 -2.923566 -0.859634
| 31> *
| 32>
| 33>                          ****END OF INPUT****

CARTESIAN COORDINATES (ANGSTROEM)
---------------------------------
  C      2.821971    3.493173    2.716929
  N      2.031893    2.485380    2.005967
  H      3.493737    3.003675    3.431461
  H      2.156449    4.174155    3.259759
  H      3.419280    4.070497    2.001994
  H      1.424368    1.881241    2.639320
  H      2.617127    1.787701    1.451958
  H      1.353302    2.890520    1.291746
  Pb     0.081254   -0.034771    0.238760
  Cl     3.121317    0.245915    0.277306
  Cl    -0.009953    3.026775   -0.127725
  Cl     0.140899    0.515531    3.240287
  Cl    -3.006685   -0.292563    0.175673
  Cl     0.044561   -0.517572   -2.855436
  Cl     0.202499   -3.098124    0.532653
  N     -1.884966   -2.527607   -1.578982
  C     -2.664881   -3.549172   -2.281400
  H     -2.474954   -1.829497   -1.031708
  H     -1.279571   -1.925402   -2.215561
  H     -3.259633   -4.123288   -1.561779
  H     -1.991792   -4.230944   -2.813775
  H     -3.338231   -3.073756   -3.003955
  H     -1.204879   -2.923566   -0.859634

 Total Charge           Charge          ....   -2
 Multiplicity           Mult            ....    1
 Number of Electrons    NEL             ....  164
 Basis Dimension        Dim             ....  468

ORBITAL ENERGIES
----------------

  NO   OCC          E(Eh)            E(eV)
   0   2.0000    -102.584557     -2791.4677
   1   2.0000    -102.582477     -2791.4111
   2   2.0000    -102.582028     -2791.3989
   3   2.0000    -102.580638     -2791.3611
   4   2.0000    -102.579424     -2791.3280
   5   2.0000    -102.576409     -2791.2460
   6   2.0000     -14.694738      -399.8642
   7   2.0000     -14.689963      -399.7342
   8   2.0000     -10.492011      -285.5021
   9   2.0000     -10.490499      -285.4610
  10   2.0000      -9.591320      -260.9931
  11   2.0000      -9.589108      -260.9329
  12   2.0000      -9.588644      -260.9203
  13   2.0000      -9.587318      -260.8842
  14   2.0000      -9.585905      -260.8457
  15   2.0000      -9.582788      -260.7609
  16   2.0000      -7.227733      -196.6766
  17   2.0000      -7.227486      -196.6699
  18   2.0000      -7.226780      -196.6507
  19   2.0000      -7.225498      -196.6158
  20   2.0000      -7.225314      -196.6108
  21   2.0000      -7.225069      -196.6041
  22   2.0000      -7.224811      -196.5971
  23   2.0000      -7.224587      -196.5910
  24   2.0000      -7.224119      -196.5783
  25   2.0000      -7.223719      -196.5674
  26   2.0000      -7.223509      -196.5617
  27   2.0000      -7.222790      -196.5421
  28   2.0000      -7.222298      -196.5287
  29   2.0000      -7.222112      -196.5236
  30   2.0000      -7.221418      -196.5048
  31   2.0000      -7.219185      -196.4440
  32   2.0000      -7.219010      -196.4393
  33   2.0000      -7.218314      -196.4203
  34   2.0000      -5.562182      -151.3547
  35   2.0000      -3.332755       -90.6889
  36   2.0000      -3.332143       -90.6722
  37   2.0000      -3.331990       -90.6680
  38   2.0000      -0.881613       -23.9899
  39   2.0000      -0.879069       -23.9207
  40   2.0000      -0.721107       -19.6223
  41   2.0000      -0.720848       -19.6153
  42   2.0000      -0.719934       -19.5904
  43   2.0000      -0.718528       -19.5521
  44   2.0000      -0.718463       -19.5504
  45   2.0000      -0.634174       -17.2567
  46   2.0000      -0.633741       -17.2450
  47   2.0000      -0.602686       -16.3999
  48   2.0000      -0.600755       -16.3474
  49   2.0000      -0.598332       -16.2814
  50   2.0000      -0.596269       -16.2253
  51   2.0000      -0.595003       -16.1908
  52   2.0000      -0.591025       -16.0826
  53   2.0000      -0.412039       -11.2121
  54   2.0000      -0.411979       -11.2105
  55   2.0000      -0.410128       -11.1601
  56   2.0000      -0.409896       -11.1538
  57   2.0000      -0.364288        -9.9128
  58   2.0000      -0.362229        -9.8567
  59   2.0000      -0.291410        -7.9297
  60   2.0000      -0.291234        -7.9249
  61   2.0000      -0.290704        -7.9104
  62   2.0000      -0.290285        -7.8991
  63   2.0000      -0.290019        -7.8918
  64   2.0000      -0.114328        -3.1110
  65   2.0000      -0.109176        -2.9708
  66   2.0000      -0.108798        -2.9606
  67   2.0000      -0.097438        -2.6514
  68   2.0000      -0.089167        -2.4263
  69   2.0000      -0.086726        -2.3599
  70   2.0000      -0.086139        -2.3440
  71   2.0000      -0.082092        -2.2338
  72   2.0000      -0.081996        -2.2312
  73   2.0000      -0.081473        -2.2170
  74   2.0000      -0.080884        -2.2010
  75   2.0000      -0.079251        -2.1565
  76   2.0000      -0.078006        -2.1227
  77   2.0000      -0.076496        -2.0815
  78   2.0000      -0.076105        -2.0709
  79   2.0000      -0.074788        -2.0351
  80   2.0000      -0.069817        -1.8998
  81   2.0000      -0.044213        -1.2031
  82   0.0000       0.240777         6.5519
  83   0.0000       0.241135         6.5616
  84   0.0000       0.258081         7.0228
  85   0.0000       0.260367         7.0849
  86   0.0000       0.261965         7.1284

Dispersion correction            ...

MULLIKEN ATOMIC CHARGES
-----------------------
   0 C :   -0.270030
   1 N :   -0.290668
   2 H :    0.118025
   3 H :    0.118712
   4 H :    0.119642
   5 H :    0.262488
   6 H :    0.258755
   7 H :    0.261883
   8 Pb:    1.029633
   9 Cl:   -0.692853
  10 Cl:   -0.696501
  11 Cl:   -0.691677
  12 Cl:   -0.703754
  13 Cl:   -0.708071
  14 Cl:   -0.698657
  15 N :   -0.283283
  16 C :   -0.269544
  17 H :    0.256832
  18 H :    0.255823
  19 H :    0.120463
  20 H :    0.120753
  21 H :    0.119286
  22 H :    0.262741
Sum of atomic charges:   -2.0000000

LOEWDIN ATOMIC CHARGES
----------------------
   0 C :   -0.340162
   1 N :    0.031973
   2 H :    0.111737
   3 H :    0.111977
   4 H :    0.112197
   5 H :    0.130268
   6 H :    0.135359
   7 H :    0.130511
   8 Pb:    0.158015
   9 Cl:   -0.493529
  10 Cl:   -0.498902
  11 Cl:   -0.486169
  12 Cl:   -0.518109
  13 Cl:   -0.530754
  14 Cl:   -0.502317
  15 N :    0.037081
  16 C :   -0.337795
  17 H :    0.137986
  18 H :    0.138806
  19 H :    0.112722
  20 H :    0.112843
  21 H :    0.112264
  22 H :    0.133999

  Mayer bond orders larger than 0.1
B(  0-C ,  1-N ) :   0.9402 B(  0-C ,  2-H ) :   0.9607 B(  0-C ,  3-H ) :   0.9603
B(  0-C ,  4-H ) :   0.9601 B(  1-N ,  5-H ) :   0.7441 B(  1-N ,  6-H ) :   0.7496
B(  1-N ,  7-H ) :   0.7425 B(  5-H , 11-Cl) :   0.2645 B(  6-H ,  9-Cl) :   0.2621
B(  7-H , 10-Cl) :   0.2691 B(  8-Pb,  9-Cl) :   0.2828 B(  8-Pb, 10-Cl) :   0.2684
B(  8-Pb, 11-Cl) :   0.2805 B(  8-Pb, 12-Cl) :   0.2650 B(  8-Pb, 13-Cl) :   0.2570
B(  8-Pb, 14-Cl) :   0.2691 B( 12-Cl, 17-H ) :   0.2628 B( 13-Cl, 18-H ) :   0.2648
B( 14-Cl, 22-H ) :   0.2651 B( 15-N , 16-C ) :   0.9401 B( 15-N , 17-H ) :   0.7515
B( 15-N , 18-H ) :   0.7517 B( 15-N , 22-H ) :   0.7451 B( 16-C , 19-H ) :   0.9598
B( 16-C , 20-H ) :   0.9599 B( 16-C , 21-H ) :   0.9604

MP2 TOTAL ENERGY:    -3146.564231916 Eh
Dispersion correction           -0.027752316
FINAL SINGLE POINT ENERGY     -3146.591984231986

DIPOLE MOMENT
-------------
                                X             Y             Z
Electronic contribution:      0.14527      -1.23423       2.76994
Nuclear contribution   :     -0.11367       1.17812      -2.56436
                        -----------------------------------------
Total Dipole Moment    :      0.03160      -0.05611       0.20558
                        -----------------------------------------
Magnitude (a.u.)       :      0.21543
Magnitude (Debye)      :      0.54759

                             ****ORCA TERMINATED NORMALLY****
TOTAL RUN TIME: 0 days 0 hours 33 minutes 24 seconds 467 msec
