                         Program Version 3.0.3 - RELEASE   -
|  1> ! RIJCOSX RI-B2PLYP D3BJ def2-TZVP ECP{def2-TZVP} TIGHTSCF Grid5 FinalGrid6 MORead
|  2> %method
|  3>  RunTyp Gradient
|  4>  end
|  5> %maxcore 1000
|  6> %moinp "previous.gbw"
|  7> *xyz 0 1
|  8> C 2.891451 3.575826 2.778059
|  9> N 2.089424 2.555032 2.059582
| 10> H 3.558472 3.076137 3.484362
| 11> H 2.218727 4.247132 3.316750
| 12> H 3.479382 4.144646 2.054078
| 13> H 1.492676 1.958835 2.673590
| 14> H 2.651801 1.866309 1.511973
| 15> H 1.418732 2.942131 1.359080
| 16> Pb 0.166090 0.001004 0.225868
| 17> Cl 2.727189 0.182493 0.243518
| 18> Cl -0.035051 2.577536 -0.149962
| 19> Cl 0.119005 0.371181 2.896710
| 20> Cl -2.465434 -0.062646 0.331905
| 21> Cl 0.130449 -0.274811 -2.241120
| 22> Cl 0.264507 -2.534377 0.651350
| 23> N -1.944119 -2.595072 -1.633806
| 24> C -2.725500 -3.643046 -2.335777
| 25> H -2.519034 -1.905375 -1.102173
| 26> H -1.352579 -2.002501 -2.255638
| 27> H -3.308461 -4.206070 -1.603344
| 28> H -2.038395 -4.314606 -2.855607
| 29> H -3.396098 -3.169682 -3.056568
| 30> H -1.270867 -2.959590 -0.921865
| 31> *
| 32>
| 33>                          ****END OF INPUT****

CARTESIAN COORDINATES (ANGSTROEM)
---------------------------------
  C      2.891451    3.575826    2.778059
  N      2.089424    2.555032    2.059582
  H      3.558472    3.076137    3.484362
  H      2.218727    4.247132    3.316750
  H      3.479382    4.144646    2.054078
  H      1.492676    1.958835    2.673590
  H      2.651801    1.866309    1.511973
  H      1.418732    2.942131    1.359080
  Pb     0.166090    0.001004    0.225868
  Cl     2.727189    0.182493    0.243518
  Cl    -0.035051    2.577536   -0.149962
  Cl     0.119005    0.371181    2.896710
  Cl    -2.465434   -0.062646    0.331905
  Cl     0.130449   -0.274811   -2.241120
  Cl     0.264507   -2.534377    0.651350
  N     -1.944119   -2.595072   -1.633806
  C     -2.725500   -3.643046   -2.335777
  H     -2.519034   -1.905375   -1.102173
  H     -1.352579   -2.002501   -2.255638
  H     -3.308461   -4.206070   -1.603344
  H     -2.038395   -4.314606   -2.855607
  H     -3.396098   -3.169682   -3.056568
  H     -1.270867   -2.959590   -0.921865

 Total Charge           Charge          ....    0
 Multiplicity           Mult            ....    1
 Number of Electrons    NEL             ....  162
 Basis Dimension        Dim             ....  468

ORBITAL ENERGIES
----------------

  NO   OCC          E(Eh)            E(eV)
   0   2.0000    -102.875125     -2799.3745
   1   2.0000    -102.868601     -2799.1970
   2   2.0000    -102.867901     -2799.1779
   3   2.0000    -102.858677     -2798.9269
   4   2.0000    -102.855583     -2798.8427
   5   2.0000    -102.852147     -2798.7492
   6   2.0000     -14.974670      -407.4815
   7   2.0000     -14.944253      -406.6538
   8   2.0000     -10.716982      -291.6239
   9   2.0000     -10.699454      -291.1470
  10   2.0000      -9.882296      -268.9109
  11   2.0000      -9.875427      -268.7240
  12   2.0000      -9.874391      -268.6958
  13   2.0000      -9.865342      -268.4496
  14   2.0000      -9.861603      -268.3479
  15   2.0000      -9.858344      -268.2592
  16   2.0000      -7.520343      -204.6389
  17   2.0000      -7.517151      -204.5521
  18   2.0000      -7.516742      -204.5410
  19   2.0000      -7.513384      -204.4496
  20   2.0000      -7.512359      -204.4217
  21   2.0000      -7.510433      -204.3693
  22   2.0000      -7.509910      -204.3550
  23   2.0000      -7.509394      -204.3410
  24   2.0000      -7.508915      -204.3280
  25   2.0000      -7.503214      -204.1728
  26   2.0000      -7.500394      -204.0961
  27   2.0000      -7.499886      -204.0823
  28   2.0000      -7.499586      -204.0741
  29   2.0000      -7.496651      -203.9942
  30   2.0000      -7.496200      -203.9820
  31   2.0000      -7.496158      -203.9808
  32   2.0000      -7.493505      -203.9086
  33   2.0000      -7.492958      -203.8938
  34   2.0000      -5.832236      -158.7032
  35   2.0000      -3.605450       -98.1093
  36   2.0000      -3.604549       -98.0848
  37   2.0000      -3.604506       -98.0836
  38   2.0000      -1.148125       -31.2421
  39   2.0000      -1.125052       -30.6142
  40   2.0000      -1.009934       -27.4817
  41   2.0000      -1.007710       -27.4212
  42   2.0000      -0.992097       -26.9963
  43   2.0000      -0.990805       -26.9612
  44   2.0000      -0.990479       -26.9523
  45   2.0000      -0.909231       -24.7414
  46   2.0000      -0.884514       -24.0689
  47   2.0000      -0.882128       -24.0039
  48   2.0000      -0.876422       -23.8487
  49   2.0000      -0.866150       -23.5691
  50   2.0000      -0.858316       -23.3560
  51   2.0000      -0.856419       -23.3044
  52   2.0000      -0.846119       -23.0241
  53   2.0000      -0.674935       -18.3659
  54   2.0000      -0.673850       -18.3364
  55   2.0000      -0.652943       -17.7675
  56   2.0000      -0.652262       -17.7489
  57   2.0000      -0.608542       -16.5593
  58   2.0000      -0.588886       -16.0244
  59   2.0000      -0.573352       -15.6017
  60   2.0000      -0.527397       -14.3512
  61   2.0000      -0.527096       -14.3430
  62   2.0000      -0.510717       -13.8973
  63   2.0000      -0.510332       -13.8868
  64   2.0000      -0.414704       -11.2847
  65   2.0000      -0.413435       -11.2501
  66   2.0000      -0.411614       -11.2006
  67   2.0000      -0.376305       -10.2398
  68   2.0000      -0.371396       -10.1062
  69   2.0000      -0.369550       -10.0560
  70   2.0000      -0.354214        -9.6387
  71   2.0000      -0.353732        -9.6255
  72   2.0000      -0.348543        -9.4843
  73   2.0000      -0.348142        -9.4734
  74   2.0000      -0.344272        -9.3681
  75   2.0000      -0.343377        -9.3438
  76   2.0000      -0.333917        -9.0864
  77   2.0000      -0.332590        -9.0502
  78   2.0000      -0.332418        -9.0455
  79   2.0000      -0.331704        -9.0261
  80   2.0000      -0.325983        -8.8704
  81   0.0000      -0.112910        -3.0724
  82   0.0000       0.030831         0.8389
  83   0.0000       0.047559         1.2941
  84   0.0000       0.079454         2.1620
  85   0.0000       0.090062         2.4507

Dispersion correction            ...

MULLIKEN ATOMIC CHARGES
-----------------------
   0 C :   -0.278166
   1 N :   -0.283506
   2 H :    0.160063
   3 H :    0.161099
   4 H :    0.159936
   5 H :    0.272111
   6 H :    0.273426
   7 H :    0.271093
   8 Pb:    1.034679
   9 Cl:   -0.416360
  10 Cl:   -0.426656
  11 Cl:   -0.437397
  12 Cl:   -0.432008
  13 Cl:   -0.408860
  14 Cl:   -0.420175
  15 N :   -0.281302
  16 C :   -0.278158
  17 H :    0.277765
  18 H :    0.279377
  19 H :    0.168063
  20 H :    0.165749
  21 H :    0.165643
  22 H :    0.273585
Sum of atomic charges:    0.0000000

LOEWDIN ATOMIC CHARGES
----------------------
   0 C :   -0.292012
   1 N :    0.072708
   2 H :    0.126531
   3 H :    0.126807
   4 H :    0.126208
   5 H :    0.152964
   6 H :    0.155404
   7 H :    0.156320
   8 Pb:   -0.582845
   9 Cl:   -0.101551
  10 Cl:   -0.132558
  11 Cl:   -0.174289
  12 Cl:   -0.162531
  13 Cl:   -0.065245
  14 Cl:   -0.117937
  15 N :    0.090447
  16 C :   -0.284463
  17 H :    0.175589
  18 H :    0.173424
  19 H :    0.129648
  20 H :    0.128792
  21 H :    0.128647
  22 H :    0.169943

  Mayer bond orders larger than 0.1
B(  0-C ,  1-N ) :   0.8950 B(  0-C ,  2-H ) :   0.9531 B(  0-C ,  3-H ) :   0.9527
B(  0-C ,  4-H ) :   0.9527 B(  1-N ,  5-H ) :   0.7968 B(  1-N ,  6-H ) :   0.8072
B(  1-N ,  7-H ) :   0.8057 B(  5-H , 11-Cl) :   0.1801 B(  6-H ,  9-Cl) :   0.1584
B(  7-H , 10-Cl) :   0.1646 B(  8-Pb,  9-Cl) :   0.6096 B(  8-Pb, 10-Cl) :   0.5875
B(  8-Pb, 11-Cl) :   0.5519 B(  8-Pb, 12-Cl) :   0.5896 B(  8-Pb, 13-Cl) :   0.6454
B(  8-Pb, 14-Cl) :   0.6054 B( 12-Cl, 17-H ) :   0.1498 B( 13-Cl, 18-H ) :   0.1303
B( 14-Cl, 22-H ) :   0.1579 B( 15-N , 16-C ) :   0.8901 B( 15-N , 17-H ) :   0.8167
B( 15-N , 18-H ) :   0.8228 B( 15-N , 22-H ) :   0.8115 B( 16-C , 19-H ) :   0.9501
B( 16-C , 20-H ) :   0.9505 B( 16-C , 21-H ) :   0.9509

MP2 TOTAL ENERGY:    -3146.413168486 Eh
Dispersion correction           -0.030641098
FINAL SINGLE POINT ENERGY     -3146.443809584010

DIPOLE MOMENT
-------------
                                X             Y             Z
Electronic contribution:      5.10699      -2.15331      -4.08136
Nuclear contribution   :     -5.24714       1.59646       3.37872
                        -----------------------------------------
Total Dipole Moment    :     -0.14014      -0.55686      -0.70264
                        -----------------------------------------
Magnitude (a.u.)       :      0.90743
Magnitude (Debye)      :      2.30650

                             ****ORCA TERMINATED NORMALLY****
TOTAL RUN TIME: 0 days 0 hours 37 minutes 8 seconds 110 msec
