                         Program Version 3.0.3 - RELEASE   -
|  1> ! RIJCOSX RI-B2PLYP D3BJ def2-TZVP ECP{def2-TZVP} TIGHTSCF Grid5 FinalGrid6 SlowConv MORead
|  2> %method
|  3>  RunTyp Gradient
|  4>  end
|  5> %maxcore 1000
|  6> %moinp "previous.gbw"
|  7> *xyz 0 1
|  8> C -0.394281 0.276013 -0.426662
|  9> N -1.165380 -0.685592 -1.253010
| 10> H 0.248796 -0.278576 0.260517
| 11> H -1.090820 0.897444 0.140826
| 12> H 0.215705 0.904875 -1.079130
| 13> H -1.783150 -1.324970 -0.698370
| 14> H -0.582260 -1.326300 -1.835140
| 15> H -1.813140 -0.240924 -1.938260
| 16> Pb -2.751750 -3.741890 -2.708770
| 17> Cl -1.147520 -3.202350 -4.647720
| 18> Cl -2.525310 1.437540 -2.662590
| 19> Cl -4.666110 -3.452490 -1.013410
| 20> *
| 21>
| 22>                          ****END OF INPUT****

CARTESIAN COORDINATES (ANGSTROEM)
---------------------------------
  C     -0.394281    0.276013   -0.426662
  N     -1.165380   -0.685592   -1.253010
  H      0.248796   -0.278576    0.260517
  H     -1.090820    0.897444    0.140826
  H      0.215705    0.904875   -1.079130
  H     -1.783150   -1.324970   -0.698370
  H     -0.582260   -1.326300   -1.835140
  H     -1.813140   -0.240924   -1.938260
  Pb    -2.751750   -3.741890   -2.708770
  Cl    -1.147520   -3.202350   -4.647720
  Cl    -2.525310    1.437540   -2.662590
  Cl    -4.666110   -3.452490   -1.013410

 Total Charge           Charge          ....    0
 Multiplicity           Mult            ....    1
 Number of Electrons    NEL             ....   92
 Basis Dimension        Dim             ....  259

ORBITAL ENERGIES
----------------

  NO   OCC          E(Eh)            E(eV)
   0   2.0000    -102.883368     -2799.5988
   1   2.0000    -102.883055     -2799.5903
   2   2.0000    -102.760591     -2796.2578
   3   2.0000     -14.990682      -407.9172
   4   2.0000     -10.709540      -291.4214
   5   2.0000      -9.889673      -269.1117
   6   2.0000      -9.889382      -269.1038
   7   2.0000      -9.766886      -265.7705
   8   2.0000      -7.526225      -204.7990
   9   2.0000      -7.525926      -204.7909
  10   2.0000      -7.525338      -204.7749
  11   2.0000      -7.525024      -204.7663
  12   2.0000      -7.524825      -204.7609
  13   2.0000      -7.524571      -204.7540
  14   2.0000      -7.403616      -201.4626
  15   2.0000      -7.402616      -201.4354
  16   2.0000      -7.402605      -201.4351
  17   2.0000      -5.882465      -160.0700
  18   2.0000      -3.657074       -99.5141
  19   2.0000      -3.655143       -99.4615
  20   2.0000      -3.646786       -99.2341
  21   2.0000      -1.159701       -31.5571
  22   2.0000      -1.047640       -28.5077
  23   2.0000      -1.047008       -28.4905
  24   2.0000      -1.044313       -28.4172
  25   2.0000      -1.039119       -28.2759
  26   2.0000      -1.037363       -28.2281
  27   2.0000      -0.897525       -24.4229
  28   2.0000      -0.895796       -24.3758
  29   2.0000      -0.866437       -23.5770
  30   2.0000      -0.782193       -21.2846
  31   2.0000      -0.689402       -18.7596
  32   2.0000      -0.673201       -18.3187
  33   2.0000      -0.615320       -16.7437
  34   2.0000      -0.604652       -16.4534
  35   2.0000      -0.519624       -14.1397
  36   2.0000      -0.519268       -14.1300
  37   2.0000      -0.429162       -11.6781
  38   2.0000      -0.382939       -10.4203
  39   2.0000      -0.380853       -10.3635
  40   2.0000      -0.370840       -10.0911
  41   2.0000      -0.369429       -10.0527
  42   2.0000      -0.325288        -8.8515
  43   2.0000      -0.273138        -7.4325
  44   2.0000      -0.262092        -7.1319
  45   2.0000      -0.261310        -7.1106
  46   0.0000      -0.124827        -3.3967
  47   0.0000      -0.107889        -2.9358
  48   0.0000       0.011790         0.3208
  49   0.0000       0.013937         0.3792
  50   0.0000       0.062121         1.6904

Dispersion correction            ...

MULLIKEN ATOMIC CHARGES
-----------------------
   0 C :   -0.244982
   1 N :   -0.303067
   2 H :    0.136882
   3 H :    0.179186
   4 H :    0.179196
   5 H :    0.265287
   6 H :    0.268993
   7 H :    0.248051
   8 Pb:    0.854258
   9 Cl:   -0.424807
  10 Cl:   -0.731289
  11 Cl:   -0.427710
Sum of atomic charges:   -0.0000000

LOEWDIN ATOMIC CHARGES
----------------------
   0 C :   -0.294339
   1 N :    0.087531
   2 H :    0.116357
   3 H :    0.135888
   4 H :    0.135922
   5 H :    0.193701
   6 H :    0.192696
   7 H :    0.112254
   8 Pb:    0.333179
   9 Cl:   -0.171135
  10 Cl:   -0.669566
  11 Cl:   -0.172488

  Mayer bond orders larger than 0.1
B(  0-C ,  1-N ) :   0.8715 B(  0-C ,  2-H ) :   0.9414 B(  0-C ,  3-H ) :   0.9441
B(  0-C ,  4-H ) :   0.9447 B(  1-N ,  5-H ) :   0.8757 B(  1-N ,  6-H ) :   0.8728
B(  1-N ,  7-H ) :   0.6748 B(  7-H , 10-Cl) :   0.3917 B(  8-Pb,  9-Cl) :   0.8954
B(  8-Pb, 11-Cl) :   0.8965

MP2 TOTAL ENERGY:    -1669.512363243 Eh
Dispersion correction           -0.010082995
FINAL SINGLE POINT ENERGY     -1669.522446238089

DIPOLE MOMENT
-------------
                                X             Y             Z
Electronic contribution:    -35.26254    -158.43854     -31.58551
Nuclear contribution   :     37.28326     155.19866      33.61818
                        -----------------------------------------
Total Dipole Moment    :      2.02072      -3.23988       2.03267
                        -----------------------------------------
Magnitude (a.u.)       :      4.32572
Magnitude (Debye)      :     10.99511

                             ****ORCA TERMINATED NORMALLY****
TOTAL RUN TIME: 0 days 0 hours 12 minutes 43 seconds 297 msec
