                         Program Version 3.0.3 - RELEASE   -
|  1> ! RIJCOSX RI-B2PLYP D3BJ def2-TZVP ECP{def2-TZVP} TIGHTSCF Grid5 FinalGrid6 SlowConv MORead
|  2> %method
|  3>  RunTyp Gradient
|  4>  end
|  5> %maxcore 1000
|  6> %moinp "previous.gbw"
|  7> *xyz 0 1
|  8> C -0.394281 0.276013 -0.426662
|  9> N -1.165380 -0.685592 -1.253010
| 10> H 0.248796 -0.278576 0.260517
| 11> H -1.090820 0.897444 0.140826
| 12> H 0.215705 0.904875 -1.079130
| 13> H -1.783150 -1.324970 -0.698370
| 14> H -0.582260 -1.326300 -1.835140
| 15> H -1.813140 -0.240924 -1.938260
| 16> Pb -2.685870 -2.566790 -3.057330
| 17> Cl -0.258548 -2.287160 -3.564680
| 18> Cl -3.595220 -0.220418 -2.834470
| 19> Cl -2.675200 -3.375560 -0.697103
| 20> *
| 21>
| 22>                          ****END OF INPUT****

CARTESIAN COORDINATES (ANGSTROEM)
---------------------------------
  C     -0.394281    0.276013   -0.426662
  N     -1.165380   -0.685592   -1.253010
  H      0.248796   -0.278576    0.260517
  H     -1.090820    0.897444    0.140826
  H      0.215705    0.904875   -1.079130
  H     -1.783150   -1.324970   -0.698370
  H     -0.582260   -1.326300   -1.835140
  H     -1.813140   -0.240924   -1.938260
  Pb    -2.685870   -2.566790   -3.057330
  Cl    -0.258548   -2.287160   -3.564680
  Cl    -3.595220   -0.220418   -2.834470
  Cl    -2.675200   -3.375560   -0.697103

 Total Charge           Charge          ....    0
 Multiplicity           Mult            ....    1
 Number of Electrons    NEL             ....   92
 Basis Dimension        Dim             ....  259

ORBITAL ENERGIES
----------------

  NO   OCC          E(Eh)            E(eV)
   0   2.0000    -102.867109     -2799.1563
   1   2.0000    -102.864394     -2799.0825
   2   2.0000    -102.862190     -2799.0225
   3   2.0000     -14.957982      -407.0274
   4   2.0000     -10.709451      -291.4190
   5   2.0000      -9.875681      -268.7309
   6   2.0000      -9.872734      -268.6508
   7   2.0000      -9.870061      -268.5780
   8   2.0000      -7.512587      -204.4279
   9   2.0000      -7.511065      -204.3865
  10   2.0000      -7.510565      -204.3729
  11   2.0000      -7.509643      -204.3478
  12   2.0000      -7.508173      -204.3078
  13   2.0000      -7.507653      -204.2936
  14   2.0000      -7.507147      -204.2799
  15   2.0000      -7.505388      -204.2320
  16   2.0000      -7.505003      -204.2215
  17   2.0000      -5.798457      -157.7840
  18   2.0000      -3.570265       -97.1519
  19   2.0000      -3.568673       -97.1085
  20   2.0000      -3.568460       -97.1027
  21   2.0000      -1.143938       -31.1281
  22   2.0000      -0.976255       -26.5653
  23   2.0000      -0.974905       -26.5285
  24   2.0000      -0.962369       -26.1874
  25   2.0000      -0.958660       -26.0865
  26   2.0000      -0.957877       -26.0652
  27   2.0000      -0.908068       -24.7098
  28   2.0000      -0.880174       -23.9508
  29   2.0000      -0.873567       -23.7710
  30   2.0000      -0.857722       -23.3398
  31   2.0000      -0.670473       -18.2445
  32   2.0000      -0.669436       -18.2163
  33   2.0000      -0.608820       -16.5668
  34   2.0000      -0.560080       -15.2405
  35   2.0000      -0.522394       -14.2151
  36   2.0000      -0.521582       -14.1930
  37   2.0000      -0.403280       -10.9738
  38   2.0000      -0.399851       -10.8805
  39   2.0000      -0.381687       -10.3862
  40   2.0000      -0.364771        -9.9259
  41   2.0000      -0.364524        -9.9192
  42   2.0000      -0.361678        -9.8418
  43   2.0000      -0.358971        -9.7681
  44   2.0000      -0.352473        -9.5913
  45   2.0000      -0.290096        -7.8939
  46   0.0000      -0.006032        -0.1641
  47   0.0000       0.031199         0.8490
  48   0.0000       0.033892         0.9223
  49   0.0000       0.042026         1.1436
  50   0.0000       0.089681         2.4404

Dispersion correction            ...

MULLIKEN ATOMIC CHARGES
-----------------------
   0 C :   -0.285318
   1 N :   -0.313512
   2 H :    0.162867
   3 H :    0.163610
   4 H :    0.163685
   5 H :    0.287744
   6 H :    0.288497
   7 H :    0.289322
   8 Pb:    0.715693
   9 Cl:   -0.487410
  10 Cl:   -0.494837
  11 Cl:   -0.490342
Sum of atomic charges:   -0.0000000

LOEWDIN ATOMIC CHARGES
----------------------
   0 C :   -0.286734
   1 N :    0.061343
   2 H :    0.128094
   3 H :    0.128472
   4 H :    0.128882
   5 H :    0.173546
   6 H :    0.145858
   7 H :    0.144169
   8 Pb:   -0.145409
   9 Cl:   -0.147179
  10 Cl:   -0.165829
  11 Cl:   -0.165213

  Mayer bond orders larger than 0.1
B(  0-C ,  1-N ) :   0.8882 B(  0-C ,  2-H ) :   0.9525 B(  0-C ,  3-H ) :   0.9517
B(  0-C ,  4-H ) :   0.9523 B(  1-N ,  5-H ) :   0.8152 B(  1-N ,  6-H ) :   0.7820
B(  1-N ,  7-H ) :   0.7810 B(  5-H , 11-Cl) :   0.1228 B(  6-H ,  9-Cl) :   0.1699
B(  7-H , 10-Cl) :   0.1735 B(  8-Pb,  9-Cl) :   0.6574 B(  8-Pb, 10-Cl) :   0.6414
B(  8-Pb, 11-Cl) :   0.6966

MP2 TOTAL ENERGY:    -1669.603159202 Eh
Dispersion correction           -0.014416653
FINAL SINGLE POINT ENERGY     -1669.617575855268

DIPOLE MOMENT
-------------
                                X             Y             Z
Electronic contribution:    -58.11677     -70.94431     -72.14263
Nuclear contribution   :     59.02381      72.06150      72.99864
                        -----------------------------------------
Total Dipole Moment    :      0.90704       1.11719       0.85602
                        -----------------------------------------
Magnitude (a.u.)       :      1.67440
Magnitude (Debye)      :      4.25598

                             ****ORCA TERMINATED NORMALLY****
TOTAL RUN TIME: 0 days 0 hours 13 minutes 55 seconds 155 msec
