                         Program Version 3.0.3 - RELEASE   -
|  1> ! RIJCOSX RI-B2PLYP D3BJ def2-TZVP ECP{def2-TZVP} TIGHTSCF Grid5 FinalGrid6 MORead
|  2> %maxcore 4000
|  3> %moinp "previous.gbw"
|  4> *xyz -1 1
|  5> C 3.321334 3.304660 2.430157
|  6> N 2.356571 2.328752 1.891132
|  7> H 3.929482 2.825089 3.202898
|  8> H 2.779051 4.148026 2.867131
|  9> H 3.970752 3.667461 1.628343
| 10> H 1.712427 1.919960 2.626954
| 11> H 2.798301 1.476145 1.466883
| 12> H 1.726191 2.717573 1.143366
| 13> Pb 0.031521 -0.158109 0.759577
| 14> Cl 2.787001 -0.506835 0.828699
| 15> Cl 0.240305 2.919388 -0.323934
| 16> Cl 0.381706 0.643429 3.508701
| 17> Cl -3.268839 -0.329467 -0.072372
| 18> Cl 0.019542 -1.208998 -2.193183
| 19> Cl -0.542946 -2.718913 1.850055
| 20> N -2.185808 -3.054212 -0.959335
| 21> C -3.018599 -3.892984 -1.852407
| 22> H -2.697680 -2.199715 -0.614166
| 23> H -1.345672 -2.675212 -1.453465
| 24> H -3.863008 -4.284793 -1.282203
| 25> H -2.403708 -4.719219 -2.215644
| 26> H -3.366846 -3.277457 -2.686457
| 27> H -1.855008 -3.591944 -0.148281
| 28> Cl 3.324747 -4.847119 1.480158
| 29> Cl 0.967591 -5.235816 4.819251
| 30> Pb 0.294215 -5.454036 1.499942
| 31> N 2.161285 -2.658962 3.515767
| 32> C 3.006676 -1.740565 4.311813
| 33> H 2.698023 -3.156655 2.770259
| 34> H 1.390718 -2.163400 3.045648
| 35> H 3.799912 -2.319606 4.793333
| 36> H 2.384520 -1.246095 5.060700
| 37> H 3.427402 -0.991699 3.638613
| 38> H 1.731703 -3.427574 4.095222
| 39> Cl 0.364867 -5.453683 -1.285610
| 40> H -2.444419 -8.567556 -2.232135
| 41> H -0.598109 -7.323819 -1.165277
| 42> H -1.004862 -9.612620 -2.073837
| 43> C -1.775778 -9.065444 -1.523604
| 44> N -1.147567 -8.055720 -0.651573
| 45> Cl -2.534094 -6.003977 1.056694
| 46> H -1.842497 -7.478800 -0.094428
| 47> H -0.483324 -8.457680 0.056334
| 48> H -2.352281 -9.766255 -0.913124
| 49> Cl 0.929878 -8.607838 1.630050
| 50> H -3.020852 1.137851 -3.759427
| 51> H -2.443836 0.935457 -1.388789
| 52> C -2.421148 1.915242 -3.276964
| 53> H -3.072919 2.741318 -2.978333
| 54> N -1.760461 1.345922 -2.088558
| 55> H -1.130632 0.530708 -2.323343
| 56> H -1.666594 2.281032 -3.979276
| 57> H -1.165922 2.035435 -1.571092
| 58> H 3.622704 -8.508951 4.939340
| 59> H 2.344608 -7.817453 2.937850
| 60> C 4.032137 -7.791101 4.222778
| 61> H 4.696529 -8.309487 3.525223
| 62> N 2.932785 -7.146076 3.481813
| 63> H 2.277052 -6.592786 4.110347
| 64> H 4.597499 -7.025510 4.762093
| 65> H 3.269849 -6.425562 2.787786
| 66> *
| 67>
| 68>                          ****END OF INPUT****

CARTESIAN COORDINATES (ANGSTROEM)
---------------------------------
  C      3.321334    3.304660    2.430157
  N      2.356571    2.328752    1.891132
  H      3.929482    2.825089    3.202898
  H      2.779051    4.148026    2.867131
  H      3.970752    3.667461    1.628343
  H      1.712427    1.919960    2.626954
  H      2.798301    1.476145    1.466883
  H      1.726191    2.717573    1.143366
  Pb     0.031521   -0.158109    0.759577
  Cl     2.787001   -0.506835    0.828699
  Cl     0.240305    2.919388   -0.323934
  Cl     0.381706    0.643429    3.508701
  Cl    -3.268839   -0.329467   -0.072372
  Cl     0.019542   -1.208998   -2.193183
  Cl    -0.542946   -2.718913    1.850055
  N     -2.185808   -3.054212   -0.959335
  C     -3.018599   -3.892984   -1.852407
  H     -2.697680   -2.199715   -0.614166
  H     -1.345672   -2.675212   -1.453465
  H     -3.863008   -4.284793   -1.282203
  H     -2.403708   -4.719219   -2.215644
  H     -3.366846   -3.277457   -2.686457
  H     -1.855008   -3.591944   -0.148281
  Cl     3.324747   -4.847119    1.480158
  Cl     0.967591   -5.235816    4.819251
  Pb     0.294215   -5.454036    1.499942
  N      2.161285   -2.658962    3.515767
  C      3.006676   -1.740565    4.311813
  H      2.698023   -3.156655    2.770259
  H      1.390718   -2.163400    3.045648
  H      3.799912   -2.319606    4.793333
  H      2.384520   -1.246095    5.060700
  H      3.427402   -0.991699    3.638613
  H      1.731703   -3.427574    4.095222
  Cl     0.364867   -5.453683   -1.285610
  H     -2.444419   -8.567556   -2.232135
  H     -0.598109   -7.323819   -1.165277
  H     -1.004862   -9.612620   -2.073837
  C     -1.775778   -9.065444   -1.523604
  N     -1.147567   -8.055720   -0.651573
  Cl    -2.534094   -6.003977    1.056694
  H     -1.842497   -7.478800   -0.094428
  H     -0.483324   -8.457680    0.056334
  H     -2.352281   -9.766255   -0.913124
  Cl     0.929878   -8.607838    1.630050
  H     -3.020852    1.137851   -3.759427
  H     -2.443836    0.935457   -1.388789
  C     -2.421148    1.915242   -3.276964
  H     -3.072919    2.741318   -2.978333
  N     -1.760461    1.345922   -2.088558
  H     -1.130632    0.530708   -2.323343
  H     -1.666594    2.281032   -3.979276
  H     -1.165922    2.035435   -1.571092
  H      3.622704   -8.508951    4.939340
  H      2.344608   -7.817453    2.937850
  C      4.032137   -7.791101    4.222778
  H      4.696529   -8.309487    3.525223
  N      2.932785   -7.146076    3.481813
  H      2.277052   -6.592786    4.110347
  H      4.597499   -7.025510    4.762093
  H      3.269849   -6.425562    2.787786

 Total Charge           Charge          ....   -1
 Multiplicity           Mult            ....    1
 Number of Electrons    NEL             ....  346
 Basis Dimension        Dim             .... 1095

ORBITAL ENERGIES
----------------

  NO   OCC          E(Eh)            E(eV)
   0   2.0000    -102.759513     -2796.2285
   1   2.0000    -102.740573     -2795.7131
   2   2.0000    -102.737236     -2795.6223
   3   2.0000    -102.734261     -2795.5414
   4   2.0000    -102.734260     -2795.5413
   5   2.0000    -102.731220     -2795.4586
   6   2.0000    -102.731128     -2795.4561
   7   2.0000    -102.723283     -2795.2426
   8   2.0000    -102.719718     -2795.1456
   9   2.0000    -102.719595     -2795.1423
  10   2.0000    -102.719425     -2795.1377
  11   2.0000     -14.843270      -403.9059
  12   2.0000     -14.841515      -403.8581
  13   2.0000     -14.832493      -403.6127
  14   2.0000     -14.829327      -403.5265
  15   2.0000     -14.828644      -403.5079
  16   2.0000     -14.825563      -403.4241
  17   2.0000     -10.614176      -288.8264
  18   2.0000     -10.613369      -288.8045
  19   2.0000     -10.602873      -288.5188
  20   2.0000     -10.602538      -288.5097
  21   2.0000     -10.582437      -287.9627
  22   2.0000     -10.580377      -287.9067
  23   2.0000      -9.767167      -265.7781
  24   2.0000      -9.747552      -265.2444
  25   2.0000      -9.744074      -265.1497
  26   2.0000      -9.741390      -265.0767
  27   2.0000      -9.741195      -265.0714
  28   2.0000      -9.738363      -264.9943
  29   2.0000      -9.738306      -264.9928
  30   2.0000      -9.730230      -264.7730
  31   2.0000      -9.726867      -264.6815
  32   2.0000      -9.726858      -264.6813
  33   2.0000      -9.726558      -264.6731
  34   2.0000      -7.403948      -201.4717
  35   2.0000      -7.402628      -201.4358
  36   2.0000      -7.402599      -201.4350
  37   2.0000      -7.384351      -200.9384
  38   2.0000      -7.383322      -200.9104
  39   2.0000      -7.382817      -200.8967
  40   2.0000      -7.380886      -200.8441
  41   2.0000      -7.379828      -200.8153
  42   2.0000      -7.379366      -200.8028
  43   2.0000      -7.377854      -200.7616
  44   2.0000      -7.377727      -200.7582
  45   2.0000      -7.377381      -200.7487
  46   2.0000      -7.377166      -200.7429
  47   2.0000      -7.376841      -200.7340
  48   2.0000      -7.376623      -200.7281
  49   2.0000      -7.374719      -200.6763
  50   2.0000      -7.374714      -200.6762
  51   2.0000      -7.374568      -200.6722
  52   2.0000      -7.374440      -200.6687
  53   2.0000      -7.373873      -200.6533
  54   2.0000      -7.373837      -200.6523
  55   2.0000      -7.366476      -200.4520
  56   2.0000      -7.366295      -200.4471
  57   2.0000      -7.365902      -200.4364
  58   2.0000      -7.363161      -200.3618
  59   2.0000      -7.363125      -200.3608
  60   2.0000      -7.362802      -200.3520
  61   2.0000      -7.362770      -200.3512
  62   2.0000      -7.362758      -200.3508
  63   2.0000      -7.362699      -200.3492
  64   2.0000      -7.362666      -200.3483
  65   2.0000      -7.362632      -200.3474
  66   2.0000      -7.362245      -200.3369
  67   2.0000      -5.706198      -155.2735
  68   2.0000      -5.705706      -155.2602
  69   2.0000      -3.477317       -94.6226
  70   2.0000      -3.476879       -94.6107
  71   2.0000      -3.476016       -94.5872
  72   2.0000      -3.475873       -94.5833
  73   2.0000      -3.475628       -94.5766
  74   2.0000      -3.475199       -94.5650
  75   2.0000      -1.025955       -27.9176
  76   2.0000      -1.024240       -27.8710
  77   2.0000      -1.012725       -27.5577
  78   2.0000      -1.012473       -27.5508
  79   2.0000      -1.010743       -27.5037
  80   2.0000      -1.005344       -27.3568
  81   2.0000      -0.869532       -23.6612
  82   2.0000      -0.867224       -23.5984
  83   2.0000      -0.866692       -23.5839
  84   2.0000      -0.865828       -23.5604
  85   2.0000      -0.865008       -23.5381
  86   2.0000      -0.864417       -23.5220
  87   2.0000      -0.864319       -23.5193
  88   2.0000      -0.863682       -23.5020
  89   2.0000      -0.863094       -23.4860
  90   2.0000      -0.862453       -23.4685
  91   2.0000      -0.782208       -21.2850
  92   2.0000      -0.770904       -20.9774
  93   2.0000      -0.769493       -20.9390
  94   2.0000      -0.758218       -20.6322
  95   2.0000      -0.757955       -20.6250
  96   2.0000      -0.754290       -20.5253
  97   2.0000      -0.752505       -20.4767
  98   2.0000      -0.751586       -20.4517
  99   2.0000      -0.750293       -20.4165
 100   2.0000      -0.746664       -20.3178
 101   2.0000      -0.745762       -20.2932
 102   2.0000      -0.742162       -20.1952
 103   2.0000      -0.740787       -20.1578
 104   2.0000      -0.737206       -20.0604
 105   2.0000      -0.736336       -20.0367
 106   2.0000      -0.726898       -19.7799
 107   2.0000      -0.723378       -19.6841
 108   2.0000      -0.558540       -15.1987
 109   2.0000      -0.557228       -15.1629
 110   2.0000      -0.552176       -15.0255
 111   2.0000      -0.550215       -14.9721
 112   2.0000      -0.547378       -14.8949
 113   2.0000      -0.546740       -14.8775
 114   2.0000      -0.545883       -14.8542
 115   2.0000      -0.543617       -14.7926
 116   2.0000      -0.540969       -14.7205
 117   2.0000      -0.540583       -14.7100
 118   2.0000      -0.533860       -14.5271
 119   2.0000      -0.529627       -14.4119
 120   2.0000      -0.497277       -13.5316
 121   2.0000      -0.495779       -13.4908
 122   2.0000      -0.483122       -13.1464
 123   2.0000      -0.482989       -13.1428
 124   2.0000      -0.468932       -12.7603
 125   2.0000      -0.462360       -12.5814
 126   2.0000      -0.453127       -12.3302
 127   2.0000      -0.436913       -11.8890
 128   2.0000      -0.422324       -11.4920
 129   2.0000      -0.421428       -11.4676
 130   2.0000      -0.420209       -11.4345
 131   2.0000      -0.419328       -11.4105
 132   2.0000      -0.410822       -11.1790
 133   2.0000      -0.410476       -11.1696
 134   2.0000      -0.408617       -11.1190
 135   2.0000      -0.408414       -11.1135
 136   2.0000      -0.398560       -10.8454
 137   2.0000      -0.395749       -10.7689
 138   2.0000      -0.391737       -10.6597
 139   2.0000      -0.389720       -10.6048
 140   2.0000      -0.288521        -7.8510
 141   2.0000      -0.275313        -7.4917
 142   2.0000      -0.270001        -7.3471
 143   2.0000      -0.263593        -7.1727
 144   2.0000      -0.258237        -7.0270
 145   2.0000      -0.255508        -6.9527
 146   2.0000      -0.254699        -6.9307
 147   2.0000      -0.248655        -6.7662
 148   2.0000      -0.245111        -6.6698
 149   2.0000      -0.242756        -6.6057
 150   2.0000      -0.240739        -6.5508
 151   2.0000      -0.240579        -6.5465
 152   2.0000      -0.238156        -6.4806
 153   2.0000      -0.235748        -6.4150
 154   2.0000      -0.233822        -6.3626
 155   2.0000      -0.233123        -6.3436
 156   2.0000      -0.232362        -6.3229
 157   2.0000      -0.230502        -6.2723
 158   2.0000      -0.229380        -6.2417
 159   2.0000      -0.228209        -6.2099
 160   2.0000      -0.227718        -6.1965
 161   2.0000      -0.226398        -6.1606
 162   2.0000      -0.225694        -6.1415
 163   2.0000      -0.224078        -6.0975
 164   2.0000      -0.223146        -6.0721
 165   2.0000      -0.222878        -6.0648
 166   2.0000      -0.222250        -6.0477
 167   2.0000      -0.221769        -6.0347
 168   2.0000      -0.221149        -6.0178
 169   2.0000      -0.216596        -5.8939
 170   2.0000      -0.213874        -5.8198
 171   2.0000      -0.194262        -5.2861
 172   2.0000      -0.185221        -5.0401
 173   0.0000       0.096004         2.6124
 174   0.0000       0.110668         3.0114
 175   0.0000       0.117849         3.2068
 176   0.0000       0.122091         3.3223
 177   0.0000       0.126809         3.4507

MULLIKEN ATOMIC CHARGES
-----------------------
   0 C :   -0.251617
   1 N :   -0.291370
   2 H :    0.137221
   3 H :    0.141815
   4 H :    0.141253
   5 H :    0.273171
   6 H :    0.270295
   7 H :    0.280017
   8 Pb:    0.993811
   9 Cl:   -0.603638
  10 Cl:   -0.717988
  11 Cl:   -0.646411
  12 Cl:   -0.701499
  13 Cl:   -0.675536
  14 Cl:   -0.594512
  15 N :   -0.273732
  16 C :   -0.240610
  17 H :    0.278609
  18 H :    0.297778
  19 H :    0.145554
  20 H :    0.137146
  21 H :    0.121765
  22 H :    0.288816
  23 Cl:   -0.668031
  24 Cl:   -0.700722
  25 Pb:    0.996421
  26 N :   -0.276446
  27 C :   -0.236396
  28 H :    0.291542
  29 H :    0.295849
  30 H :    0.121014
  31 H :    0.150025
  32 H :    0.138666
  33 H :    0.274718
  34 Cl:   -0.604744
  35 H :    0.136251
  36 H :    0.267700
  37 H :    0.140798
  38 C :   -0.250650
  39 N :   -0.291626
  40 Cl:   -0.651518
  41 H :    0.278797
  42 H :    0.279147
  43 H :    0.141170
  44 Cl:   -0.714738
  45 H :    0.134930
  46 H :    0.273455
  47 C :   -0.244454
  48 H :    0.134877
  49 N :   -0.283786
  50 H :    0.258562
  51 H :    0.137384
  52 H :    0.275685
  53 H :    0.135958
  54 H :    0.277430
  55 C :   -0.245889
  56 H :    0.137561
  57 N :   -0.286393
  58 H :    0.271794
  59 H :    0.134088
  60 H :    0.261232
Sum of atomic charges:   -1.0000000

LOEWDIN ATOMIC CHARGES
----------------------
   0 C :   -0.297041
   1 N :    0.063166
   2 H :    0.118031
   3 H :    0.119432
   4 H :    0.118518
   5 H :    0.148578
   6 H :    0.149459
   7 H :    0.150436
   8 Pb:    0.081570
   9 Cl:   -0.327683
  10 Cl:   -0.524573
  11 Cl:   -0.401354
  12 Cl:   -0.511504
  13 Cl:   -0.461364
  14 Cl:   -0.149346
  15 N :    0.089577
  16 C :   -0.303552
  17 H :    0.141480
  18 H :    0.155024
  19 H :    0.116289
  20 H :    0.112042
  21 H :    0.112359
  22 H :    0.173401
  23 Cl:   -0.450766
  24 Cl:   -0.522998
  25 Pb:    0.087150
  26 N :    0.092401
  27 C :   -0.302213
  28 H :    0.162040
  29 H :    0.171812
  30 H :    0.111746
  31 H :    0.117856
  32 H :    0.111495
  33 H :    0.149139
  34 Cl:   -0.335769
  35 H :    0.117606
  36 H :    0.151250
  37 H :    0.118141
  38 C :   -0.298010
  39 N :    0.063119
  40 Cl:   -0.401073
  41 H :    0.142400
  42 H :    0.152524
  43 H :    0.119046
  44 Cl:   -0.511881
  45 H :    0.118085
  46 H :    0.138816
  47 C :   -0.300034
  48 H :    0.116734
  49 N :    0.060671
  50 H :    0.147907
  51 H :    0.117669
  52 H :    0.143443
  53 H :    0.117028
  54 H :    0.143956
  55 C :   -0.300752
  56 H :    0.117348
  57 N :    0.059858
  58 H :    0.140942
  59 H :    0.117650
  60 H :    0.142717

  Mayer bond orders larger than 0.1
B(  0-C ,  1-N ) :   0.9340 B(  0-C ,  2-H ) :   0.9748 B(  0-C ,  3-H ) :   0.9747
B(  0-C ,  4-H ) :   0.9743 B(  1-N ,  5-H ) :   0.7865 B(  1-N ,  6-H ) :   0.8037
B(  1-N ,  7-H ) :   0.8051 B(  5-H , 11-Cl) :   0.2235 B(  6-H ,  9-Cl) :   0.1987
B(  7-H , 10-Cl) :   0.1826 B(  8-Pb,  9-Cl) :   0.4761 B(  8-Pb, 10-Cl) :   0.1761
B(  8-Pb, 11-Cl) :   0.3769 B(  8-Pb, 12-Cl) :   0.1408 B(  8-Pb, 13-Cl) :   0.2420
B(  8-Pb, 14-Cl) :   0.3083 B( 10-Cl, 52-H ) :   0.1740 B( 12-Cl, 17-H ) :   0.2068
B( 12-Cl, 46-H ) :   0.2309 B( 13-Cl, 18-H ) :   0.1445 B( 13-Cl, 50-H ) :   0.2323
B( 14-Cl, 25-Pb) :   0.2852 B( 15-N , 16-C ) :   0.9316 B( 15-N , 17-H ) :   0.7927
B( 15-N , 18-H ) :   0.8188 B( 15-N , 22-H ) :   0.8740 B( 16-C , 19-H ) :   0.9704
B( 16-C , 20-H ) :   0.9672 B( 16-C , 21-H ) :   0.9708 B( 23-Cl, 25-Pb) :   0.2593
B( 23-Cl, 28-H ) :   0.1395 B( 23-Cl, 60-H ) :   0.2333 B( 24-Cl, 25-Pb) :   0.1464
B( 24-Cl, 33-H ) :   0.2008 B( 24-Cl, 58-H ) :   0.2371 B( 25-Pb, 34-Cl) :   0.4820
B( 25-Pb, 40-Cl) :   0.3475 B( 25-Pb, 44-Cl) :   0.1945 B( 26-N , 27-C ) :   0.9263
B( 26-N , 28-H ) :   0.8274 B( 26-N , 29-H ) :   0.8659 B( 26-N , 33-H ) :   0.8021
B( 27-C , 30-H ) :   0.9705 B( 27-C , 31-H ) :   0.9694 B( 27-C , 32-H ) :   0.9653
B( 34-Cl, 36-H ) :   0.1955 B( 35-H , 38-C ) :   0.9750 B( 36-H , 39-N ) :   0.8082
B( 37-H , 38-C ) :   0.9742 B( 38-C , 39-N ) :   0.9332 B( 38-C , 43-H ) :   0.9748
B( 39-N , 41-H ) :   0.7761 B( 39-N , 42-H ) :   0.8121 B( 40-Cl, 41-H ) :   0.2300
B( 42-H , 44-Cl) :   0.1738 B( 44-Cl, 54-H ) :   0.1696 B( 45-H , 47-C ) :   0.9750
B( 46-H , 49-N ) :   0.7779 B( 47-C , 48-H ) :   0.9758 B( 47-C , 49-N ) :   0.9400
B( 47-C , 51-H ) :   0.9749 B( 49-N , 50-H ) :   0.7941 B( 49-N , 52-H ) :   0.8127
B( 53-H , 55-C ) :   0.9760 B( 54-H , 57-N ) :   0.8153 B( 55-C , 56-H ) :   0.9749
B( 55-C , 57-N ) :   0.9380 B( 55-C , 59-H ) :   0.9753 B( 57-N , 58-H ) :   0.7766
B( 57-N , 60-H ) :   0.7894

MP2 TOTAL ENERGY:    -6025.868216832 Eh
Dispersion correction           -0.080501733
FINAL SINGLE POINT ENERGY     -6025.948718564867

DIPOLE MOMENT
-------------
                                X             Y             Z
Electronic contribution:    -32.89214      10.46102      39.04588
Nuclear contribution   :     33.96957     -10.55212     -40.02060
                        -----------------------------------------
Total Dipole Moment    :      1.07743      -0.09111      -0.97472
                        -----------------------------------------
Magnitude (a.u.)       :      1.45576
Magnitude (Debye)      :      3.70025

                             ****ORCA TERMINATED NORMALLY****
TOTAL RUN TIME: 0 days 1 hours 43 minutes 57 seconds 427 msec
