                         Program Version 3.0.3 - RELEASE   -
|  1> ! RIJCOSX RI-B2PLYP D3BJ def2-TZVP ECP{def2-TZVP} TIGHTSCF Grid5 FinalGrid6 SlowConv MORead
|  2> %method
|  3>  RunTyp Gradient
|  4>  end
|  5> %maxcore 1000
|  6> %moinp "previous.gbw"
|  7> *xyz 0 1
|  8> C 2.905719 3.576013 2.873338
|  9> N 2.134625 2.614408 2.046990
| 10> H 3.548796 3.021424 3.560517
| 11> H 2.209179 4.197444 3.440826
| 12> H 3.515705 4.204875 2.220874
| 13> H 1.516852 1.975028 2.601630
| 14> H 2.717740 1.973704 1.464858
| 15> H 1.486857 3.059076 1.361735
| 16> Pb 0.811826 0.131547 0.209487
| 17> Cl 2.516546 0.268387 0.089874
| 18> Cl -1.525344 2.735046 -0.108798
| 19> Cl 0.302947 0.320768 2.851419
| 20> *
| 21>
| 22>                          ****END OF INPUT****

CARTESIAN COORDINATES (ANGSTROEM)
---------------------------------
  C      2.905719    3.576013    2.873338
  N      2.134625    2.614408    2.046990
  H      3.548796    3.021424    3.560517
  H      2.209179    4.197444    3.440826
  H      3.515705    4.204875    2.220874
  H      1.516852    1.975028    2.601630
  H      2.717740    1.973704    1.464858
  H      1.486857    3.059076    1.361735
  Pb     0.811826    0.131547    0.209487
  Cl     2.516546    0.268387    0.089874
  Cl    -1.525344    2.735046   -0.108798
  Cl     0.302947    0.320768    2.851419

 Total Charge           Charge          ....    0
 Multiplicity           Mult            ....    1
 Number of Electrons    NEL             ....   92
 Basis Dimension        Dim             ....  259

ORBITAL ENERGIES
----------------

  NO   OCC          E(Eh)            E(eV)
   0   2.0000    -102.979841     -2802.2239
   1   2.0000    -102.852338     -2798.7544
   2   2.0000    -102.747625     -2795.9050
   3   2.0000     -15.010374      -408.4530
   4   2.0000     -10.739474      -292.2359
   5   2.0000     -10.010218      -272.3919
   6   2.0000      -9.859181      -268.2819
   7   2.0000      -9.752040      -265.3665
   8   2.0000      -7.649191      -208.1451
   9   2.0000      -7.641651      -207.9399
  10   2.0000      -7.641063      -207.9239
  11   2.0000      -7.496068      -203.9784
  12   2.0000      -7.494944      -203.9478
  13   2.0000      -7.494139      -203.9259
  14   2.0000      -7.389025      -201.0656
  15   2.0000      -7.387783      -201.0318
  16   2.0000      -7.387607      -201.0270
  17   2.0000      -5.849041      -159.1605
  18   2.0000      -3.636175       -98.9453
  19   2.0000      -3.618231       -98.4571
  20   2.0000      -3.615232       -98.3755
  21   2.0000      -1.242094       -33.7991
  22   2.0000      -1.182859       -32.1872
  23   2.0000      -1.042378       -28.3646
  24   2.0000      -1.039743       -28.2929
  25   2.0000      -1.006870       -27.3983
  26   2.0000      -1.004522       -27.3344
  27   2.0000      -0.939696       -25.5704
  28   2.0000      -0.895279       -24.3618
  29   2.0000      -0.868746       -23.6398
  30   2.0000      -0.750075       -20.4106
  31   2.0000      -0.712759       -19.3952
  32   2.0000      -0.704878       -19.1807
  33   2.0000      -0.639108       -17.3910
  34   2.0000      -0.628251       -17.0956
  35   2.0000      -0.553968       -15.0742
  36   2.0000      -0.550357       -14.9760
  37   2.0000      -0.513516       -13.9735
  38   2.0000      -0.511847       -13.9281
  39   2.0000      -0.390644       -10.6300
  40   2.0000      -0.356358        -9.6970
  41   2.0000      -0.346953        -9.4411
  42   2.0000      -0.304761        -8.2930
  43   2.0000      -0.242279        -6.5927
  44   2.0000      -0.238326        -6.4852
  45   2.0000      -0.235201        -6.4002
  46   0.0000      -0.041542        -1.1304
  47   0.0000      -0.002545        -0.0693
  48   0.0000       0.006617         0.1801
  49   0.0000       0.046029         1.2525
  50   0.0000       0.070626         1.9218

Dispersion correction            ...

MULLIKEN ATOMIC CHARGES
-----------------------
   0 C :   -0.276646
   1 N :   -0.318232
   2 H :    0.169647
   3 H :    0.186604
   4 H :    0.166538
   5 H :    0.285973
   6 H :    0.275538
   7 H :    0.290154
   8 Pb:    0.712971
   9 Cl:   -0.291629
  10 Cl:   -0.694757
  11 Cl:   -0.506161
Sum of atomic charges:   -0.0000000

LOEWDIN ATOMIC CHARGES
----------------------
   0 C :   -0.276108
   1 N :    0.090088
   2 H :    0.131758
   3 H :    0.137551
   4 H :    0.128890
   5 H :    0.151637
   6 H :    0.167678
   7 H :    0.203061
   8 Pb:   -0.219363
   9 Cl:    0.382833
  10 Cl:   -0.641015
  11 Cl:   -0.257009

  Mayer bond orders larger than 0.1
B(  0-C ,  1-N ) :   0.8793 B(  0-C ,  2-H ) :   0.9496 B(  0-C ,  3-H ) :   0.9457
B(  0-C ,  4-H ) :   0.9495 B(  1-N ,  5-H ) :   0.7494 B(  1-N ,  6-H ) :   0.8507
B(  1-N ,  7-H ) :   0.8319 B(  5-H , 11-Cl) :   0.2396 B(  7-H , 10-Cl) :   0.1151
B(  8-Pb,  9-Cl) :   1.3144 B(  8-Pb, 10-Cl) :   0.4073 B(  8-Pb, 11-Cl) :   0.5752

MP2 TOTAL ENERGY:    -1669.158183097 Eh
Dispersion correction           -0.012816312
FINAL SINGLE POINT ENERGY     -1669.170999409306

DIPOLE MOMENT
-------------
                                X             Y             Z
Electronic contribution:    -11.58405     -99.70949     -74.49497
Nuclear contribution   :     16.95535      99.85676      75.48845
                        -----------------------------------------
Total Dipole Moment    :      5.37130       0.14727       0.99348
                        -----------------------------------------
Magnitude (a.u.)       :      5.46439
Magnitude (Debye)      :     13.88937

                             ****ORCA TERMINATED NORMALLY****
TOTAL RUN TIME: 0 days 0 hours 16 minutes 1 seconds 91 msec
