                         Program Version 3.0.3 - RELEASE   -
|  1> ! RIJCOSX RI-B2PLYP D3BJ def2-TZVP ECP{def2-TZVP} TIGHTSCF Grid5 FinalGrid6 SlowConv MORead
|  2> %method
|  3>  RunTyp Gradient
|  4>  end
|  5> %maxcore 1000
|  6> %moinp "previous.gbw"
|  7> *xyz 0 1
|  8> C 2.905719 3.576013 2.873338
|  9> N 2.134625 2.614408 2.046990
| 10> H 3.548796 3.021424 3.560517
| 11> H 2.209179 4.197444 3.440826
| 12> H 3.515705 4.204875 2.220874
| 13> H 1.516852 1.975028 2.601630
| 14> H 2.717740 1.973704 1.464858
| 15> H 1.486857 3.059076 1.361735
| 16> Pb -0.288257 0.131547 0.209487
| 17> Cl 2.846983 0.268387 0.089874
| 18> Cl -0.680867 2.735046 -0.108798
| 19> Cl 1.042186 0.320768 2.851419
| 20> *
| 21>
| 22>                          ****END OF INPUT****

CARTESIAN COORDINATES (ANGSTROEM)
---------------------------------
  C      2.905719    3.576013    2.873338
  N      2.134625    2.614408    2.046990
  H      3.548796    3.021424    3.560517
  H      2.209179    4.197444    3.440826
  H      3.515705    4.204875    2.220874
  H      1.516852    1.975028    2.601630
  H      2.717740    1.973704    1.464858
  H      1.486857    3.059076    1.361735
  Pb    -0.288257    0.131547    0.209487
  Cl     2.846983    0.268387    0.089874
  Cl    -0.680867    2.735046   -0.108798
  Cl     1.042186    0.320768    2.851419

 Total Charge           Charge          ....    0
 Multiplicity           Mult            ....    1
 Number of Electrons    NEL             ....   92
 Basis Dimension        Dim             ....  259

ORBITAL ENERGIES
----------------

  NO   OCC          E(Eh)            E(eV)
   0   2.0000    -102.872901     -2799.3140
   1   2.0000    -102.838731     -2798.3841
   2   2.0000    -102.813594     -2797.7001
   3   2.0000     -14.927368      -406.1943
   4   2.0000     -10.689902      -290.8870
   5   2.0000      -9.878566      -268.8094
   6   2.0000      -9.846710      -267.9426
   7   2.0000      -9.818981      -267.1881
   8   2.0000      -7.515937      -204.5190
   9   2.0000      -7.513762      -204.4599
  10   2.0000      -7.513717      -204.4586
  11   2.0000      -7.483599      -203.6391
  12   2.0000      -7.482366      -203.6055
  13   2.0000      -7.481545      -203.5832
  14   2.0000      -7.456208      -202.8937
  15   2.0000      -7.454635      -202.8509
  16   2.0000      -7.454117      -202.8368
  17   2.0000      -5.855416      -159.3340
  18   2.0000      -3.627564       -98.7110
  19   2.0000      -3.625011       -98.6416
  20   2.0000      -3.623817       -98.6091
  21   2.0000      -1.112781       -30.2803
  22   2.0000      -1.015379       -27.6299
  23   2.0000      -1.013784       -27.5865
  24   2.0000      -1.012559       -27.5531
  25   2.0000      -1.012326       -27.5468
  26   2.0000      -1.009395       -27.4670
  27   2.0000      -0.883606       -24.0441
  28   2.0000      -0.871479       -23.7141
  29   2.0000      -0.834058       -22.6959
  30   2.0000      -0.820848       -22.3364
  31   2.0000      -0.641872       -17.4662
  32   2.0000      -0.639356       -17.3978
  33   2.0000      -0.576812       -15.6959
  34   2.0000      -0.575960       -15.6727
  35   2.0000      -0.502969       -13.6865
  36   2.0000      -0.499775       -13.5996
  37   2.0000      -0.379680       -10.3316
  38   2.0000      -0.368807       -10.0358
  39   2.0000      -0.363872        -9.9014
  40   2.0000      -0.346643        -9.4326
  41   2.0000      -0.340553        -9.2669
  42   2.0000      -0.334262        -9.0957
  43   2.0000      -0.312219        -8.4959
  44   2.0000      -0.306322        -8.3355
  45   2.0000      -0.289797        -7.8858
  46   0.0000      -0.068513        -1.8643
  47   0.0000      -0.047393        -1.2896
  48   0.0000      -0.026553        -0.7225
  49   0.0000       0.053698         1.4612
  50   0.0000       0.096397         2.6231

Dispersion correction            ...

MULLIKEN ATOMIC CHARGES
-----------------------
   0 C :   -0.272610
   1 N :   -0.310861
   2 H :    0.161002
   3 H :    0.151471
   4 H :    0.152575
   5 H :    0.292390
   6 H :    0.282623
   7 H :    0.270366
   8 Pb:    0.880642
   9 Cl:   -0.582755
  10 Cl:   -0.486170
  11 Cl:   -0.538674
Sum of atomic charges:   -0.0000000

LOEWDIN ATOMIC CHARGES
----------------------
   0 C :   -0.298155
   1 N :    0.061279
   2 H :    0.127768
   3 H :    0.123384
   4 H :    0.122916
   5 H :    0.087712
   6 H :    0.155216
   7 H :    0.180510
   8 Pb:    0.395953
   9 Cl:   -0.442251
  10 Cl:   -0.236868
  11 Cl:   -0.277463

  Mayer bond orders larger than 0.1
B(  0-C ,  1-N ) :   0.8992 B(  0-C ,  2-H ) :   0.9521 B(  0-C ,  3-H ) :   0.9540
B(  0-C ,  4-H ) :   0.9541 B(  1-N ,  5-H ) :   0.7176 B(  1-N ,  6-H ) :   0.8020
B(  1-N ,  7-H ) :   0.8593 B(  5-H , 11-Cl) :   0.2636 B(  6-H ,  9-Cl) :   0.1741
B(  8-Pb,  9-Cl) :   0.5203 B(  8-Pb, 10-Cl) :   0.7650 B(  8-Pb, 11-Cl) :   0.5057

MP2 TOTAL ENERGY:    -1669.574723551 Eh
Dispersion correction           -0.013100218
FINAL SINGLE POINT ENERGY     -1669.587823769050

DIPOLE MOMENT
-------------
                                X             Y             Z
Electronic contribution:   -114.15711     -99.08622     -75.13793
Nuclear contribution   :    113.23345      99.85676      75.48845
                        -----------------------------------------
Total Dipole Moment    :     -0.92366       0.77054       0.35052
                        -----------------------------------------
Magnitude (a.u.)       :      1.25290
Magnitude (Debye)      :      3.18461

                             ****ORCA TERMINATED NORMALLY****
TOTAL RUN TIME: 0 days 0 hours 14 minutes 44 seconds 693 msec
