                         Program Version 3.0.3 - RELEASE   -
|  1> ! RIJCOSX RI-B2PLYP D3BJ def2-TZVP ECP{def2-TZVP} TIGHTSCF Grid5 FinalGrid6 SlowConv MORead
|  2> %method
|  3>  RunTyp Gradient
|  4>  end
|  5> %maxcore 1000
|  6> %moinp "previous.gbw"
|  7> *xyz 0 1
|  8> C -0.394281 0.276013 -0.426662
|  9> N -1.165380 -0.685592 -1.253010
| 10> H 0.248796 -0.278576 0.260517
| 11> H -1.090820 0.897444 0.140826
| 12> H 0.215705 0.904875 -1.079130
| 13> H -1.783150 -1.324970 -0.698370
| 14> H -0.582260 -1.326300 -1.835140
| 15> H -1.813140 -0.240924 -1.938260
| 16> Pb -2.770740 -2.526570 -3.011810
| 17> Cl -0.286635 -2.630630 -3.323440
| 18> Cl -3.354400 -0.084863 -3.201480
| 19> Cl -3.188890 -3.029710 -0.617879
| 20> *
| 21>
| 22>                          ****END OF INPUT****

CARTESIAN COORDINATES (ANGSTROEM)
---------------------------------
  C     -0.394281    0.276013   -0.426662
  N     -1.165380   -0.685592   -1.253010
  H      0.248796   -0.278576    0.260517
  H     -1.090820    0.897444    0.140826
  H      0.215705    0.904875   -1.079130
  H     -1.783150   -1.324970   -0.698370
  H     -0.582260   -1.326300   -1.835140
  H     -1.813140   -0.240924   -1.938260
  Pb    -2.770740   -2.526570   -3.011810
  Cl    -0.286635   -2.630630   -3.323440
  Cl    -3.354400   -0.084863   -3.201480
  Cl    -3.188890   -3.029710   -0.617879

 Total Charge           Charge          ....    0
 Multiplicity           Mult            ....    1
 Number of Electrons    NEL             ....   92
 Basis Dimension        Dim             ....  259

ORBITAL ENERGIES
----------------

  NO   OCC          E(Eh)            E(eV)
   0   2.0000    -102.866199     -2799.1316
   1   2.0000    -102.864588     -2799.0877
   2   2.0000    -102.863975     -2799.0711
   3   2.0000     -14.958722      -407.0475
   4   2.0000     -10.710524      -291.4482
   5   2.0000      -9.874670      -268.7034
   6   2.0000      -9.872913      -268.6556
   7   2.0000      -9.871999      -268.6308
   8   2.0000      -7.511568      -204.4002
   9   2.0000      -7.510084      -204.3598
  10   2.0000      -7.509821      -204.3526
  11   2.0000      -7.509583      -204.3461
  12   2.0000      -7.509024      -204.3309
  13   2.0000      -7.508352      -204.3126
  14   2.0000      -7.507808      -204.2978
  15   2.0000      -7.507320      -204.2846
  16   2.0000      -7.506932      -204.2740
  17   2.0000      -5.797994      -157.7714
  18   2.0000      -3.569963       -97.1436
  19   2.0000      -3.568173       -97.0949
  20   2.0000      -3.567868       -97.0866
  21   2.0000      -1.145047       -31.1583
  22   2.0000      -0.975493       -26.5445
  23   2.0000      -0.975180       -26.5360
  24   2.0000      -0.962694       -26.1962
  25   2.0000      -0.958258       -26.0755
  26   2.0000      -0.957958       -26.0674
  27   2.0000      -0.907837       -24.7035
  28   2.0000      -0.879639       -23.9362
  29   2.0000      -0.874987       -23.8096
  30   2.0000      -0.858896       -23.3717
  31   2.0000      -0.671501       -18.2725
  32   2.0000      -0.670726       -18.2514
  33   2.0000      -0.609933       -16.5971
  34   2.0000      -0.560155       -15.2426
  35   2.0000      -0.523294       -14.2396
  36   2.0000      -0.522691       -14.2232
  37   2.0000      -0.403323       -10.9750
  38   2.0000      -0.401056       -10.9133
  39   2.0000      -0.382657       -10.4126
  40   2.0000      -0.365256        -9.9391
  41   2.0000      -0.364646        -9.9225
  42   2.0000      -0.360972        -9.8225
  43   2.0000      -0.360420        -9.8075
  44   2.0000      -0.353176        -9.6104
  45   2.0000      -0.287721        -7.8293
  46   0.0000      -0.008401        -0.2286
  47   0.0000       0.032318         0.8794
  48   0.0000       0.036169         0.9842
  49   0.0000       0.040977         1.1150
  50   0.0000       0.088837         2.4174

Dispersion correction            ...

MULLIKEN ATOMIC CHARGES
-----------------------
   0 C :   -0.283920
   1 N :   -0.323592
   2 H :    0.163155
   3 H :    0.164671
   4 H :    0.164583
   5 H :    0.283666
   6 H :    0.290666
   7 H :    0.288327
   8 Pb:    0.709399
   9 Cl:   -0.487217
  10 Cl:   -0.487017
  11 Cl:   -0.482722
Sum of atomic charges:   -0.0000000

LOEWDIN ATOMIC CHARGES
----------------------
   0 C :   -0.286575
   1 N :    0.063567
   2 H :    0.128048
   3 H :    0.128763
   4 H :    0.129087
   5 H :    0.170612
   6 H :    0.144840
   7 H :    0.142604
   8 Pb:   -0.150727
   9 Cl:   -0.154055
  10 Cl:   -0.160725
  11 Cl:   -0.155438

  Mayer bond orders larger than 0.1
B(  0-C ,  1-N ) :   0.8854 B(  0-C ,  2-H ) :   0.9526 B(  0-C ,  3-H ) :   0.9522
B(  0-C ,  4-H ) :   0.9524 B(  1-N ,  5-H ) :   0.8087 B(  1-N ,  6-H ) :   0.7774
B(  1-N ,  7-H ) :   0.7758 B(  5-H , 11-Cl) :   0.1416 B(  6-H ,  9-Cl) :   0.1816
B(  7-H , 10-Cl) :   0.1896 B(  8-Pb,  9-Cl) :   0.6513 B(  8-Pb, 10-Cl) :   0.6494
B(  8-Pb, 11-Cl) :   0.6997

MP2 TOTAL ENERGY:    -1669.603424958 Eh
Dispersion correction           -0.014296869
FINAL SINGLE POINT ENERGY     -1669.617721826379

DIPOLE MOMENT
-------------
                                X             Y             Z
Electronic contribution:    -59.04616     -70.45574     -68.54293
Nuclear contribution   :     60.03973      71.51304      69.48154
                        -----------------------------------------
Total Dipole Moment    :      0.99358       1.05730       0.93861
                        -----------------------------------------
Magnitude (a.u.)       :      1.72803
Magnitude (Debye)      :      4.39229

                             ****ORCA TERMINATED NORMALLY****
TOTAL RUN TIME: 0 days 0 hours 13 minutes 13 seconds 44 msec
