                         Program Version 3.0.3 - RELEASE   -
|  1> ! PW6B95 def2-TZVP GCP(DFT/TZ) ECP{def2-TZVP} Grid7 MORead
|  2> %pal nprocs 2 end
|  3> %method
|  4>  RunTyp Gradient
|  5>  end
|  6> %maxcore 2000
|  7> %moinp "previous.gbw"
|  8> *xyz 0 1
|  9> Pb 0.602815 0.169989 0.443616
| 10> Cl 2.969370 1.315844 0.390241
| 11> Cl -0.630042 2.310149 -0.417852
| 12> Cl 0.125334 0.945390 2.925138
| 13> Cs 2.938616 3.413457 2.499200
| 14> *
| 15>
| 16>                          ****END OF INPUT****

CARTESIAN COORDINATES (ANGSTROEM)
---------------------------------
  Pb     0.602815    0.169989    0.443616
  Cl     2.969370    1.315844    0.390241
  Cl    -0.630042    2.310149   -0.417852
  Cl     0.125334    0.945390    2.925138
  Cs     2.938616    3.413457    2.499200

 Total Charge           Charge          ....    0
 Multiplicity           Mult            ....    1
 Number of Electrons    NEL             ....   82
 Basis Dimension        Dim             ....  190

ORBITAL ENERGIES
----------------

  NO   OCC          E(Eh)            E(eV)
   0   2.0000    -101.870559     -2772.0388
   1   2.0000    -101.851385     -2771.5171
   2   2.0000    -101.839709     -2771.1994
   3   2.0000      -9.512341      -258.8440
   4   2.0000      -9.491427      -258.2749
   5   2.0000      -9.479545      -257.9515
   6   2.0000      -7.241612      -197.0543
   7   2.0000      -7.239406      -196.9942
   8   2.0000      -7.239249      -196.9900
   9   2.0000      -7.221089      -196.4958
  10   2.0000      -7.218664      -196.4298
  11   2.0000      -7.218141      -196.4156
  12   2.0000      -7.209529      -196.1813
  13   2.0000      -7.206481      -196.0983
  14   2.0000      -7.206235      -196.0916
  15   2.0000      -5.557480      -151.2267
  16   2.0000      -3.381953       -92.0276
  17   2.0000      -3.381019       -92.0022
  18   2.0000      -3.379302       -91.9555
  19   2.0000      -1.093320       -29.7508
  20   2.0000      -0.878272       -23.8990
  21   2.0000      -0.874972       -23.8092
  22   2.0000      -0.871969       -23.7275
  23   2.0000      -0.870591       -23.6900
  24   2.0000      -0.869403       -23.6577
  25   2.0000      -0.787511       -21.4293
  26   2.0000      -0.757916       -20.6239
  27   2.0000      -0.741705       -20.1828
  28   2.0000      -0.565497       -15.3880
  29   2.0000      -0.564091       -15.3497
  30   2.0000      -0.562481       -15.3059
  31   2.0000      -0.496472       -13.5097
  32   2.0000      -0.331931        -9.0323
  33   2.0000      -0.319543        -8.6952
  34   2.0000      -0.315660        -8.5895
  35   2.0000      -0.298277        -8.1165
  36   2.0000      -0.291017        -7.9190
  37   2.0000      -0.282801        -7.6954
  38   2.0000      -0.268448        -7.3048
  39   2.0000      -0.262449        -7.1416
  40   2.0000      -0.260365        -7.0849
  41   0.0000      -0.048451        -1.3184
  42   0.0000      -0.022139        -0.6024
  43   0.0000      -0.020208        -0.5499
  44   0.0000      -0.013125        -0.3572
  45   0.0000      -0.006165        -0.1678

MULLIKEN ATOMIC CHARGES
-----------------------
   0 Pb:    0.787365
   1 Cl:   -0.569028
   2 Cl:   -0.498721
   3 Cl:   -0.525905
   4 Cs:    0.806289
Sum of atomic charges:   -0.0000000

LOEWDIN ATOMIC CHARGES
----------------------
   0 Pb:    0.144801
   1 Cl:   -0.139113
   2 Cl:   -0.213330
   3 Cl:   -0.194896
   4 Cs:    0.402539

  Mayer bond orders larger than 0.1
B(  0-Pb,  1-Cl) :   0.5412 B(  0-Pb,  2-Cl) :   0.7874 B(  0-Pb,  3-Cl) :   0.6759
B(  1-Cl,  4-Cs) :   0.1925 B(  3-Cl,  4-Cs) :   0.1265

FINAL SINGLE POINT ENERGY     -1595.069164784823

DIPOLE MOMENT
-------------
                                X             Y             Z
Electronic contribution:     57.80697      15.36143      30.40423
Nuclear contribution   :    -55.01408     -13.95366     -28.80817
                        -----------------------------------------
Total Dipole Moment    :      2.79290       1.40778       1.59606
                        -----------------------------------------
Magnitude (a.u.)       :      3.51134
Magnitude (Debye)      :      8.92511

                             ****ORCA TERMINATED NORMALLY****
TOTAL RUN TIME: 0 days 0 hours 12 minutes 48 seconds 123 msec
