                         Program Version 3.0.3 - RELEASE   -
|  1> ! RIJCOSX RI-B2PLYP D3BJ def2-TZVP ECP{def2-TZVP} TIGHTSCF Grid5 FinalGrid6 SlowConv MORead
|  2> %method
|  3>  RunTyp Gradient
|  4>  end
|  5> %maxcore 1000
|  6> %moinp "previous.gbw"
|  7> *xyz 0 1
|  8> C 2.905719 3.576013 2.873338
|  9> N 2.134625 2.614408 2.046990
| 10> H 3.548796 3.021424 3.560517
| 11> H 2.209179 4.197444 3.440826
| 12> H 3.515705 4.204875 2.220874
| 13> H 1.516852 1.975028 2.601630
| 14> H 2.717740 1.973704 1.464858
| 15> H 1.486857 3.059076 1.361735
| 16> Pb -1.181988 0.131547 0.209487
| 17> Cl 2.230773 0.268387 0.089874
| 18> Cl 1.111769 2.735046 -0.108798
| 19> Cl 0.209916 0.320768 2.851419
| 20> *
| 21>
| 22>                          ****END OF INPUT****

CARTESIAN COORDINATES (ANGSTROEM)
---------------------------------
  C      2.905719    3.576013    2.873338
  N      2.134625    2.614408    2.046990
  H      3.548796    3.021424    3.560517
  H      2.209179    4.197444    3.440826
  H      3.515705    4.204875    2.220874
  H      1.516852    1.975028    2.601630
  H      2.717740    1.973704    1.464858
  H      1.486857    3.059076    1.361735
  Pb    -1.181988    0.131547    0.209487
  Cl     2.230773    0.268387    0.089874
  Cl     1.111769    2.735046   -0.108798
  Cl     0.209916    0.320768    2.851419

 Total Charge           Charge          ....    0
 Multiplicity           Mult            ....    1
 Number of Electrons    NEL             ....   92
 Basis Dimension        Dim             ....  259

ORBITAL ENERGIES
----------------

  NO   OCC          E(Eh)            E(eV)
   0   2.0000    -102.849817     -2798.6858
   1   2.0000    -102.791133     -2797.0889
   2   2.0000    -102.785230     -2796.9283
   3   2.0000     -14.876884      -404.8206
   4   2.0000     -10.660340      -290.0826
   5   2.0000      -9.854792      -268.1625
   6   2.0000      -9.802293      -266.7340
   7   2.0000      -9.791339      -266.4359
   8   2.0000      -7.492520      -203.8818
   9   2.0000      -7.490075      -203.8153
  10   2.0000      -7.489616      -203.8028
  11   2.0000      -7.438777      -202.4194
  12   2.0000      -7.437644      -202.3886
  13   2.0000      -7.436691      -202.3626
  14   2.0000      -7.429145      -202.1573
  15   2.0000      -7.426345      -202.0811
  16   2.0000      -7.426050      -202.0731
  17   2.0000      -5.903560      -160.6440
  18   2.0000      -3.675671      -100.0201
  19   2.0000      -3.673791       -99.9689
  20   2.0000      -3.670814       -99.8879
  21   2.0000      -1.078220       -29.3399
  22   2.0000      -1.061461       -28.8838
  23   2.0000      -1.061198       -28.8767
  24   2.0000      -1.058064       -28.7914
  25   2.0000      -1.056570       -28.7507
  26   2.0000      -1.055657       -28.7259
  27   2.0000      -0.858397       -23.3582
  28   2.0000      -0.853143       -23.2152
  29   2.0000      -0.795840       -21.6559
  30   2.0000      -0.789908       -21.4945
  31   2.0000      -0.607057       -16.5189
  32   2.0000      -0.604812       -16.4578
  33   2.0000      -0.604662       -16.4537
  34   2.0000      -0.543131       -14.7793
  35   2.0000      -0.476754       -12.9731
  36   2.0000      -0.472851       -12.8669
  37   2.0000      -0.353515        -9.6196
  38   2.0000      -0.344379        -9.3710
  39   2.0000      -0.338965        -9.2237
  40   2.0000      -0.335504        -9.1295
  41   2.0000      -0.311073        -8.4647
  42   2.0000      -0.291676        -7.9369
  43   2.0000      -0.273257        -7.4357
  44   2.0000      -0.265078        -7.2131
  45   2.0000      -0.225166        -6.1271
  46   0.0000      -0.121353        -3.3022
  47   0.0000      -0.106225        -2.8905
  48   0.0000      -0.082353        -2.2409
  49   0.0000       0.073366         1.9964
  50   0.0000       0.081644         2.2216

Dispersion correction            ...

MULLIKEN ATOMIC CHARGES
-----------------------
   0 C :   -0.274991
   1 N :   -0.277639
   2 H :    0.141303
   3 H :    0.138573
   4 H :    0.147778
   5 H :    0.262085
   6 H :    0.278171
   7 H :    0.264172
   8 Pb:    0.877895
   9 Cl:   -0.521119
  10 Cl:   -0.548618
  11 Cl:   -0.487611
Sum of atomic charges:   -0.0000000

LOEWDIN ATOMIC CHARGES
----------------------
   0 C :   -0.316461
   1 N :    0.026805
   2 H :    0.117707
   3 H :    0.118923
   4 H :    0.121405
   5 H :    0.143916
   6 H :    0.160969
   7 H :    0.019196
   8 Pb:    0.631449
   9 Cl:   -0.420764
  10 Cl:   -0.291285
  11 Cl:   -0.311861

  Mayer bond orders larger than 0.1
B(  0-C ,  1-N ) :   0.9035 B(  0-C ,  2-H ) :   0.9555 B(  0-C ,  3-H ) :   0.9572
B(  0-C ,  4-H ) :   0.9546 B(  1-N ,  5-H ) :   0.8236 B(  1-N ,  6-H ) :   0.8343
B(  1-N ,  7-H ) :   0.6665 B(  5-H , 11-Cl) :   0.1281 B(  6-H ,  9-Cl) :   0.1124
B(  7-H , 10-Cl) :   0.3557 B(  8-Pb,  9-Cl) :   0.6121 B(  8-Pb, 10-Cl) :   0.4054
B(  8-Pb, 11-Cl) :   0.6874

MP2 TOTAL ENERGY:    -1669.423778733 Eh
Dispersion correction           -0.013595707
FINAL SINGLE POINT ENERGY     -1669.437374440450

DIPOLE MOMENT
-------------
                                X             Y             Z
Electronic contribution:   -176.70901     -99.90759     -75.20274
Nuclear contribution   :    174.14514      99.85676      75.48845
                        -----------------------------------------
Total Dipole Moment    :     -2.56387      -0.05083       0.28570
                        -----------------------------------------
Magnitude (a.u.)       :      2.58024
Magnitude (Debye)      :      6.55845

                             ****ORCA TERMINATED NORMALLY****
TOTAL RUN TIME: 0 days 0 hours 23 minutes 8 seconds 840 msec
