                         Program Version 3.0.3 - RELEASE   -
|  1> ! PW6B95 def2-TZVP GCP(DFT/TZ) ECP{def2-TZVP} Grid7 MORead
|  2> %pal nprocs 2 end
|  3> %method
|  4>  RunTyp Gradient
|  5>  end
|  6> %maxcore 2000
|  7> %moinp "previous.gbw"
|  8> *xyz -1 1
|  9> Pb 0.747111 0.330785 0.749545
| 10> Cl 2.534351 1.007253 2.580738
| 11> Cl 1.670843 1.992192 -1.064694
| 12> Cl -1.482066 1.513151 1.512116
| 13> *
| 14>
| 15>                          ****END OF INPUT****

CARTESIAN COORDINATES (ANGSTROEM)
---------------------------------
  Pb     0.747111    0.330785    0.749545
  Cl     2.534351    1.007253    2.580738
  Cl     1.670843    1.992192   -1.064694
  Cl    -1.482066    1.513151    1.512116

 Total Charge           Charge          ....   -1
 Multiplicity           Mult            ....    1
 Number of Electrons    NEL             ....   74
 Basis Dimension        Dim             ....  161

ORBITAL ENERGIES
----------------

  NO   OCC          E(Eh)            E(eV)
   0   2.0000    -101.719411     -2767.9259
   1   2.0000    -101.717603     -2767.8767
   2   2.0000    -101.716056     -2767.8346
   3   2.0000      -9.359552      -254.6864
   4   2.0000      -9.357726      -254.6367
   5   2.0000      -9.356104      -254.5925
   6   2.0000      -7.089194      -192.9068
   7   2.0000      -7.087468      -192.8598
   8   2.0000      -7.086543      -192.8346
   9   2.0000      -7.086507      -192.8337
  10   2.0000      -7.085823      -192.8150
  11   2.0000      -7.084712      -192.7848
  12   2.0000      -7.084588      -192.7814
  13   2.0000      -7.083106      -192.7411
  14   2.0000      -7.082993      -192.7380
  15   2.0000      -5.425204      -147.6273
  16   2.0000      -3.248917       -88.4075
  17   2.0000      -3.248606       -88.3991
  18   2.0000      -3.247860       -88.3788
  19   2.0000      -0.743626       -20.2351
  20   2.0000      -0.743336       -20.2272
  21   2.0000      -0.738967       -20.1083
  22   2.0000      -0.738824       -20.1044
  23   2.0000      -0.737843       -20.0777
  24   2.0000      -0.633476       -17.2378
  25   2.0000      -0.620592       -16.8872
  26   2.0000      -0.617398       -16.8002
  27   2.0000      -0.363642        -9.8952
  28   2.0000      -0.189346        -5.1524
  29   2.0000      -0.184480        -5.0199
  30   2.0000      -0.166707        -4.5363
  31   2.0000      -0.153785        -4.1847
  32   2.0000      -0.152438        -4.1481
  33   2.0000      -0.146637        -3.9902
  34   2.0000      -0.144870        -3.9421
  35   2.0000      -0.140387        -3.8201
  36   2.0000      -0.121928        -3.3178
  37   0.0000       0.097698         2.6585
  38   0.0000       0.111720         3.0401
  39   0.0000       0.122555         3.3349
  40   0.0000       0.226888         6.1739
  41   0.0000       0.236410         6.4330

MULLIKEN ATOMIC CHARGES
-----------------------
   0 Pb:    0.746704
   1 Cl:   -0.584026
   2 Cl:   -0.577595
   3 Cl:   -0.585082
Sum of atomic charges:   -1.0000000

LOEWDIN ATOMIC CHARGES
----------------------
   0 Pb:   -0.045499
   1 Cl:   -0.323963
   2 Cl:   -0.310172
   3 Cl:   -0.320366

  Mayer bond orders larger than 0.1
B(  0-Pb,  1-Cl) :   0.7011 B(  0-Pb,  2-Cl) :   0.7112 B(  0-Pb,  3-Cl) :   0.6996

FINAL SINGLE POINT ENERGY     -1574.932535088032

DIPOLE MOMENT
-------------
                                X             Y             Z
Electronic contribution:     -8.27926     -60.51796     -13.43698
Nuclear contribution   :      7.96302      58.18194      12.88386
                        -----------------------------------------
Total Dipole Moment    :     -0.31623      -2.33602      -0.55313
                        -----------------------------------------
Magnitude (a.u.)       :      2.42135
Magnitude (Debye)      :      6.15459

                             ****ORCA TERMINATED NORMALLY****
TOTAL RUN TIME: 0 days 0 hours 8 minutes 31 seconds 343 msec
