                         Program Version 3.0.3 - RELEASE   -
|  1> ! PW6B95 def2-TZVP GCP(DFT/TZ) ECP{def2-TZVP} Grid7 MORead
|  2> %pal nprocs 2 end
|  3> %method
|  4>  RunTyp Gradient
|  5>  end
|  6> %maxcore 2000
|  7> %moinp "previous.gbw"
|  8> *xyz 0 1
|  9> Pb 0.428797 0.444419 0.249211
| 10> Cl 2.976440 0.160375 0.829521
| 11> Cl 0.621163 3.004149 0.187100
| 12> Cl -0.253194 0.487620 2.770060
| 13> Cs 2.889551 3.391843 2.490946
| 14> *
| 15>
| 16>                          ****END OF INPUT****

CARTESIAN COORDINATES (ANGSTROEM)
---------------------------------
  Pb     0.428797    0.444419    0.249211
  Cl     2.976440    0.160375    0.829521
  Cl     0.621163    3.004149    0.187100
  Cl    -0.253194    0.487620    2.770060
  Cs     2.889551    3.391843    2.490946

 Total Charge           Charge          ....    0
 Multiplicity           Mult            ....    1
 Number of Electrons    NEL             ....   82
 Basis Dimension        Dim             ....  190

ORBITAL ENERGIES
----------------

  NO   OCC          E(Eh)            E(eV)
   0   2.0000    -101.866363     -2771.9247
   1   2.0000    -101.853406     -2771.5721
   2   2.0000    -101.843499     -2771.3025
   3   2.0000      -9.507582      -258.7145
   4   2.0000      -9.493680      -258.3362
   5   2.0000      -9.483474      -258.0584
   6   2.0000      -7.237032      -196.9297
   7   2.0000      -7.234713      -196.8666
   8   2.0000      -7.234367      -196.8571
   9   2.0000      -7.223253      -196.5547
  10   2.0000      -7.220894      -196.4905
  11   2.0000      -7.220463      -196.4788
  12   2.0000      -7.213286      -196.2835
  13   2.0000      -7.210534      -196.2086
  14   2.0000      -7.210203      -196.1996
  15   2.0000      -5.552799      -151.0993
  16   2.0000      -3.376883       -91.8897
  17   2.0000      -3.376423       -91.8771
  18   2.0000      -3.375057       -91.8400
  19   2.0000      -1.096878       -29.8476
  20   2.0000      -0.874901       -23.8073
  21   2.0000      -0.871755       -23.7217
  22   2.0000      -0.867111       -23.5953
  23   2.0000      -0.866321       -23.5738
  24   2.0000      -0.865429       -23.5495
  25   2.0000      -0.781901       -21.2766
  26   2.0000      -0.758789       -20.6477
  27   2.0000      -0.745737       -20.2925
  28   2.0000      -0.568167       -15.4606
  29   2.0000      -0.566842       -15.4245
  30   2.0000      -0.564750       -15.3676
  31   2.0000      -0.495131       -13.4732
  32   2.0000      -0.328721        -8.9450
  33   2.0000      -0.319806        -8.7024
  34   2.0000      -0.314921        -8.5694
  35   2.0000      -0.296981        -8.0813
  36   2.0000      -0.292423        -7.9572
  37   2.0000      -0.282405        -7.6846
  38   2.0000      -0.271560        -7.3895
  39   2.0000      -0.267397        -7.2762
  40   2.0000      -0.260663        -7.0930
  41   0.0000      -0.049102        -1.3361
  42   0.0000      -0.015802        -0.4300
  43   0.0000      -0.014717        -0.4005
  44   0.0000      -0.011245        -0.3060
  45   0.0000      -0.006251        -0.1701

MULLIKEN ATOMIC CHARGES
-----------------------
   0 Pb:    0.778523
   1 Cl:   -0.531780
   2 Cl:   -0.538166
   3 Cl:   -0.510230
   4 Cs:    0.801654
Sum of atomic charges:   -0.0000000

LOEWDIN ATOMIC CHARGES
----------------------
   0 Pb:    0.103778
   1 Cl:   -0.182959
   2 Cl:   -0.124964
   3 Cl:   -0.204280
   4 Cs:    0.408425

  Mayer bond orders larger than 0.1
B(  0-Pb,  1-Cl) :   0.6541 B(  0-Pb,  2-Cl) :   0.6195 B(  0-Pb,  3-Cl) :   0.7416
B(  1-Cl,  4-Cs) :   0.1395 B(  2-Cl,  4-Cs) :   0.1636

FINAL SINGLE POINT ENERGY     -1595.077581749165

DIPOLE MOMENT
-------------
                                X             Y             Z
Electronic contribution:     32.74936      42.37596       5.86979
Nuclear contribution   :    -30.86853     -39.87026      -5.04608
                        -----------------------------------------
Total Dipole Moment    :      1.88082       2.50570       0.82371
                        -----------------------------------------
Magnitude (a.u.)       :      3.23953
Magnitude (Debye)      :      8.23423

                             ****ORCA TERMINATED NORMALLY****
TOTAL RUN TIME: 0 days 0 hours 12 minutes 55 seconds 183 msec
