                         Program Version 3.0.3 - RELEASE   -
|  1> ! PW6B95 def2-TZVP GCP(DFT/TZ) ECP{def2-TZVP} Grid7 MORead
|  2> %pal nprocs 2 end
|  3> %method
|  4>  RunTyp Gradient
|  5>  end
|  6> %maxcore 2000
|  7> %moinp "previous.gbw"
|  8> *xyz 0 1
|  9> Pb 0.536462 0.477770 0.256327
| 10> Cl 2.970351 0.906749 0.819021
| 11> Cl -0.136094 2.899160 0.572307
| 12> Cl -0.082186 -0.117250 2.699836
| 13> Cs 3.968495 4.762820 3.478926
| 14> *
| 15>
| 16>                          ****END OF INPUT****

CARTESIAN COORDINATES (ANGSTROEM)
---------------------------------
  Pb     0.536462    0.477770    0.256327
  Cl     2.970351    0.906749    0.819021
  Cl    -0.136094    2.899160    0.572307
  Cl    -0.082186   -0.117250    2.699836
  Cs     3.968495    4.762820    3.478926

 Total Charge           Charge          ....    0
 Multiplicity           Mult            ....    1
 Number of Electrons    NEL             ....   82
 Basis Dimension        Dim             ....  190

ORBITAL ENERGIES
----------------

  NO   OCC          E(Eh)            E(eV)
   0   2.0000    -101.820881     -2770.6870
   1   2.0000    -101.813226     -2770.4787
   2   2.0000    -101.798843     -2770.0874
   3   2.0000      -9.461750      -257.4673
   4   2.0000      -9.454023      -257.2570
   5   2.0000      -9.439154      -256.8524
   6   2.0000      -7.191366      -195.6870
   7   2.0000      -7.188777      -195.6166
   8   2.0000      -7.188556      -195.6105
   9   2.0000      -7.183720      -195.4790
  10   2.0000      -7.180993      -195.4047
  11   2.0000      -7.180797      -195.3994
  12   2.0000      -7.168991      -195.0782
  13   2.0000      -7.166046      -194.9980
  14   2.0000      -7.165963      -194.9958
  15   2.0000      -5.504768      -149.7923
  16   2.0000      -3.328897       -90.5839
  17   2.0000      -3.328534       -90.5740
  18   2.0000      -3.327022       -90.5329
  19   2.0000      -1.164859       -31.6974
  20   2.0000      -0.829321       -22.5670
  21   2.0000      -0.826312       -22.4851
  22   2.0000      -0.819418       -22.2975
  23   2.0000      -0.818899       -22.2834
  24   2.0000      -0.817706       -22.2509
  25   2.0000      -0.737836       -20.0775
  26   2.0000      -0.716761       -19.5041
  27   2.0000      -0.702284       -19.1101
  28   2.0000      -0.633861       -17.2482
  29   2.0000      -0.633571       -17.2403
  30   2.0000      -0.630990       -17.1701
  31   2.0000      -0.451694       -12.2912
  32   2.0000      -0.288354        -7.8465
  33   2.0000      -0.278928        -7.5900
  34   2.0000      -0.270393        -7.3578
  35   2.0000      -0.253029        -6.8853
  36   2.0000      -0.250466        -6.8155
  37   2.0000      -0.240226        -6.5369
  38   2.0000      -0.228079        -6.2064
  39   2.0000      -0.225479        -6.1356
  40   2.0000      -0.213871        -5.8197
  41   0.0000      -0.091609        -2.4928
  42   0.0000      -0.036071        -0.9815
  43   0.0000      -0.035043        -0.9536
  44   0.0000      -0.035008        -0.9526
  45   0.0000      -0.030067        -0.8182

MULLIKEN ATOMIC CHARGES
-----------------------
   0 Pb:    0.761142
   1 Cl:   -0.568242
   2 Cl:   -0.552438
   3 Cl:   -0.549116
   4 Cs:    0.908654
Sum of atomic charges:   -0.0000000

LOEWDIN ATOMIC CHARGES
----------------------
   0 Pb:   -0.088910
   1 Cl:   -0.218798
   2 Cl:   -0.222141
   3 Cl:   -0.261847
   4 Cs:    0.791695

  Mayer bond orders larger than 0.1
B(  0-Pb,  1-Cl) :   0.6515 B(  0-Pb,  2-Cl) :   0.7033 B(  0-Pb,  3-Cl) :   0.7331

FINAL SINGLE POINT ENERGY     -1595.024831388653

DIPOLE MOMENT
-------------
                                X             Y             Z
Electronic contribution:     82.29163      85.70912      30.86559
Nuclear contribution   :    -77.29531     -80.08245     -27.99784
                        -----------------------------------------
Total Dipole Moment    :      4.99632       5.62667       2.86775
                        -----------------------------------------
Magnitude (a.u.)       :      8.05274
Magnitude (Debye)      :     20.46844

                             ****ORCA TERMINATED NORMALLY****
TOTAL RUN TIME: 0 days 0 hours 11 minutes 44 seconds 679 msec
