                         Program Version 3.0.3 - RELEASE   -
|  1> ! RIJCOSX RI-B2PLYP D3BJ def2-TZVP ECP{def2-TZVP} TIGHTSCF Grid5 FinalGrid6 MORead
|  2> %method
|  3>  RunTyp Gradient
|  4>  end
|  5> %maxcore 1000
|  6> %moinp "previous.gbw"
|  7> *xyz -2 1
|  8> C 2.821971 3.493173 2.716929
|  9> N 2.031893 2.485380 2.005967
| 10> H 3.493737 3.003675 3.431461
| 11> H 2.156449 4.174155 3.259759
| 12> H 3.419280 4.070497 2.001994
| 13> H 1.424368 1.881241 2.639320
| 14> H 2.617127 1.787701 1.451958
| 15> H 1.353302 2.890520 1.291746
| 16> Pb 0.145464 -0.018794 0.181546
| 17> Cl 3.207685 0.195987 0.282892
| 18> Cl 0.050933 3.029106 -0.143427
| 19> Cl 0.058883 0.573066 3.205549
| 20> Cl -2.927876 -0.393557 0.143272
| 21> Cl 0.011890 -0.454799 -2.789349
| 22> Cl 0.136831 -3.118452 0.544137
| 23> N -1.884966 -2.527607 -1.578982
| 24> C -2.664881 -3.549172 -2.281400
| 25> H -2.474954 -1.829497 -1.031708
| 26> H -1.279571 -1.925402 -2.215561
| 27> H -3.259633 -4.123288 -1.561779
| 28> H -1.991792 -4.230944 -2.813775
| 29> H -3.338231 -3.073756 -3.003955
| 30> H -1.204879 -2.923566 -0.859634
| 31> *
| 32>
| 33>                          ****END OF INPUT****

CARTESIAN COORDINATES (ANGSTROEM)
---------------------------------
  C      2.821971    3.493173    2.716929
  N      2.031893    2.485380    2.005967
  H      3.493737    3.003675    3.431461
  H      2.156449    4.174155    3.259759
  H      3.419280    4.070497    2.001994
  H      1.424368    1.881241    2.639320
  H      2.617127    1.787701    1.451958
  H      1.353302    2.890520    1.291746
  Pb     0.145464   -0.018794    0.181546
  Cl     3.207685    0.195987    0.282892
  Cl     0.050933    3.029106   -0.143427
  Cl     0.058883    0.573066    3.205549
  Cl    -2.927876   -0.393557    0.143272
  Cl     0.011890   -0.454799   -2.789349
  Cl     0.136831   -3.118452    0.544137
  N     -1.884966   -2.527607   -1.578982
  C     -2.664881   -3.549172   -2.281400
  H     -2.474954   -1.829497   -1.031708
  H     -1.279571   -1.925402   -2.215561
  H     -3.259633   -4.123288   -1.561779
  H     -1.991792   -4.230944   -2.813775
  H     -3.338231   -3.073756   -3.003955
  H     -1.204879   -2.923566   -0.859634

 Total Charge           Charge          ....   -2
 Multiplicity           Mult            ....    1
 Number of Electrons    NEL             ....  164
 Basis Dimension        Dim             ....  468

ORBITAL ENERGIES
----------------

  NO   OCC          E(Eh)            E(eV)
   0   2.0000    -102.583429     -2791.4370
   1   2.0000    -102.582797     -2791.4198
   2   2.0000    -102.580843     -2791.3666
   3   2.0000    -102.579424     -2791.3280
   4   2.0000    -102.579369     -2791.3265
   5   2.0000    -102.578550     -2791.3043
   6   2.0000     -14.691285      -399.7702
   7   2.0000     -14.684640      -399.5894
   8   2.0000     -10.490810      -285.4695
   9   2.0000     -10.487553      -285.3808
  10   2.0000      -9.590270      -260.9645
  11   2.0000      -9.589413      -260.9412
  12   2.0000      -9.587238      -260.8820
  13   2.0000      -9.586352      -260.8579
  14   2.0000      -9.586154      -260.8525
  15   2.0000      -9.585277      -260.8286
  16   2.0000      -7.226655      -196.6473
  17   2.0000      -7.226457      -196.6419
  18   2.0000      -7.225885      -196.6263
  19   2.0000      -7.225720      -196.6218
  20   2.0000      -7.225522      -196.6165
  21   2.0000      -7.224899      -196.5995
  22   2.0000      -7.223659      -196.5658
  23   2.0000      -7.223421      -196.5593
  24   2.0000      -7.222759      -196.5413
  25   2.0000      -7.222728      -196.5404
  26   2.0000      -7.222525      -196.5349
  27   2.0000      -7.222518      -196.5347
  28   2.0000      -7.222356      -196.5303
  29   2.0000      -7.221801      -196.5152
  30   2.0000      -7.221648      -196.5110
  31   2.0000      -7.221643      -196.5109
  32   2.0000      -7.221493      -196.5068
  33   2.0000      -7.220763      -196.4869
  34   2.0000      -5.560387      -151.3058
  35   2.0000      -3.330924       -90.6391
  36   2.0000      -3.330469       -90.6267
  37   2.0000      -3.330147       -90.6179
  38   2.0000      -0.879816       -23.9410
  39   2.0000      -0.874976       -23.8093
  40   2.0000      -0.719481       -19.5781
  41   2.0000      -0.719249       -19.5718
  42   2.0000      -0.718161       -19.5422
  43   2.0000      -0.716914       -19.5082
  44   2.0000      -0.716770       -19.5043
  45   2.0000      -0.633950       -17.2507
  46   2.0000      -0.631280       -17.1780
  47   2.0000      -0.602312       -16.3897
  48   2.0000      -0.600583       -16.3427
  49   2.0000      -0.598270       -16.2798
  50   2.0000      -0.596965       -16.2442
  51   2.0000      -0.595480       -16.2038
  52   2.0000      -0.592483       -16.1223
  53   2.0000      -0.410639       -11.1741
  54   2.0000      -0.410440       -11.1686
  55   2.0000      -0.406526       -11.0621
  56   2.0000      -0.406058       -11.0494
  57   2.0000      -0.362849        -9.8736
  58   2.0000      -0.358476        -9.7546
  59   2.0000      -0.290766        -7.9122
  60   2.0000      -0.290600        -7.9076
  61   2.0000      -0.289590        -7.8802
  62   2.0000      -0.287321        -7.8184
  63   2.0000      -0.286976        -7.8090
  64   2.0000      -0.114956        -3.1281
  65   2.0000      -0.110089        -2.9957
  66   2.0000      -0.108510        -2.9527
  67   2.0000      -0.097332        -2.6486
  68   2.0000      -0.089436        -2.4337
  69   2.0000      -0.086681        -2.3587
  70   2.0000      -0.086010        -2.3404
  71   2.0000      -0.081963        -2.2303
  72   2.0000      -0.081648        -2.2218
  73   2.0000      -0.081402        -2.2151
  74   2.0000      -0.080869        -2.2005
  75   2.0000      -0.079058        -2.1513
  76   2.0000      -0.078009        -2.1227
  77   2.0000      -0.077133        -2.0989
  78   2.0000      -0.076728        -2.0879
  79   2.0000      -0.074642        -2.0311
  80   2.0000      -0.070580        -1.9206
  81   2.0000      -0.043305        -1.1784
  82   0.0000       0.241209         6.5636
  83   0.0000       0.243072         6.6143
  84   0.0000       0.259748         7.0681
  85   0.0000       0.260883         7.0990
  86   0.0000       0.265606         7.2275

Dispersion correction            ...

MULLIKEN ATOMIC CHARGES
-----------------------
   0 C :   -0.269622
   1 N :   -0.289819
   2 H :    0.118551
   3 H :    0.119290
   4 H :    0.119825
   5 H :    0.259842
   6 H :    0.255790
   7 H :    0.266280
   8 Pb:    1.028661
   9 Cl:   -0.702581
  10 Cl:   -0.692683
  11 Cl:   -0.698738
  12 Cl:   -0.695237
  13 Cl:   -0.691257
  14 Cl:   -0.704613
  15 N :   -0.293651
  16 C :   -0.269762
  17 H :    0.266691
  18 H :    0.254701
  19 H :    0.119350
  20 H :    0.116893
  21 H :    0.115485
  22 H :    0.266607
Sum of atomic charges:   -2.0000000

LOEWDIN ATOMIC CHARGES
----------------------
   0 C :   -0.339352
   1 N :    0.033315
   2 H :    0.111940
   3 H :    0.112315
   4 H :    0.112329
   5 H :    0.130559
   6 H :    0.142935
   7 H :    0.126486
   8 Pb:    0.146870
   9 Cl:   -0.516663
  10 Cl:   -0.485806
  11 Cl:   -0.501820
  12 Cl:   -0.487265
  13 Cl:   -0.484597
  14 Cl:   -0.509828
  15 N :    0.029745
  16 C :   -0.342020
  17 H :    0.119790
  18 H :    0.139712
  19 H :    0.112303
  20 H :    0.111115
  21 H :    0.110633
  22 H :    0.127305

  Mayer bond orders larger than 0.1
B(  0-C ,  1-N ) :   0.9396 B(  0-C ,  2-H ) :   0.9607 B(  0-C ,  3-H ) :   0.9603
B(  0-C ,  4-H ) :   0.9600 B(  1-N ,  5-H ) :   0.7409 B(  1-N ,  6-H ) :   0.7612
B(  1-N ,  7-H ) :   0.7370 B(  5-H , 11-Cl) :   0.2728 B(  6-H ,  9-Cl) :   0.2506
B(  7-H , 10-Cl) :   0.2716 B(  8-Pb,  9-Cl) :   0.2805 B(  8-Pb, 10-Cl) :   0.2706
B(  8-Pb, 11-Cl) :   0.2601 B(  8-Pb, 12-Cl) :   0.2557 B(  8-Pb, 13-Cl) :   0.3020
B(  8-Pb, 14-Cl) :   0.2531 B( 12-Cl, 17-H ) :   0.2815 B( 13-Cl, 18-H ) :   0.2440
B( 14-Cl, 22-H ) :   0.2703 B( 15-N , 16-C ) :   0.9413 B( 15-N , 17-H ) :   0.7283
B( 15-N , 18-H ) :   0.7633 B( 15-N , 22-H ) :   0.7385 B( 16-C , 19-H ) :   0.9604
B( 16-C , 20-H ) :   0.9604 B( 16-C , 21-H ) :   0.9609

MP2 TOTAL ENERGY:    -3146.563641159 Eh
Dispersion correction           -0.027914691
FINAL SINGLE POINT ENERGY     -3146.591555850175

DIPOLE MOMENT
-------------
                                X             Y             Z
Electronic contribution:      5.49189       0.87791      -2.65354
Nuclear contribution   :     -5.41495      -0.72301       2.55758
                        -----------------------------------------
Total Dipole Moment    :      0.07694       0.15489      -0.09596
                        -----------------------------------------
Magnitude (a.u.)       :      0.19779
Magnitude (Debye)      :      0.50274

                             ****ORCA TERMINATED NORMALLY****
TOTAL RUN TIME: 0 days 0 hours 45 minutes 25 seconds 466 msec
