                         Program Version 3.0.3 - RELEASE   -
|  1> ! PW6B95 def2-TZVP GCP(DFT/TZ) ECP{def2-TZVP} Grid7 MORead
|  2> %pal nprocs 2 end
|  3> %method
|  4>  RunTyp Gradient
|  5>  end
|  6> %maxcore 2000
|  7> %moinp "previous.gbw"
|  8> *xyz -1 1
|  9> Pb 0.448374 1.331609 0.376510
| 10> Cl 3.006259 1.287111 0.394839
| 11> Cl 0.321217 1.139591 2.996021
| 12> Cl 0.456153 -1.523753 0.138753
| 13> *
| 14>
| 15>                          ****END OF INPUT****

CARTESIAN COORDINATES (ANGSTROEM)
---------------------------------
  Pb     0.448374    1.331609    0.376510
  Cl     3.006259    1.287111    0.394839
  Cl     0.321217    1.139591    2.996021
  Cl     0.456153   -1.523753    0.138753

 Total Charge           Charge          ....   -1
 Multiplicity           Mult            ....    1
 Number of Electrons    NEL             ....   74
 Basis Dimension        Dim             ....  161

ORBITAL ENERGIES
----------------

  NO   OCC          E(Eh)            E(eV)
   0   2.0000    -101.723868     -2768.0472
   1   2.0000    -101.717179     -2767.8652
   2   2.0000    -101.692655     -2767.1978
   3   2.0000      -9.364219      -254.8133
   4   2.0000      -9.357141      -254.6207
   5   2.0000      -9.331824      -253.9318
   6   2.0000      -7.094136      -193.0412
   7   2.0000      -7.091041      -192.9570
   8   2.0000      -7.090981      -192.9554
   9   2.0000      -7.087059      -192.8487
  10   2.0000      -7.084039      -192.7665
  11   2.0000      -7.083936      -192.7637
  12   2.0000      -7.061777      -192.1607
  13   2.0000      -7.058787      -192.0793
  14   2.0000      -7.058753      -192.0784
  15   2.0000      -5.431787      -147.8064
  16   2.0000      -3.256126       -88.6037
  17   2.0000      -3.255090       -88.5755
  18   2.0000      -3.253684       -88.5372
  19   2.0000      -0.750674       -20.4269
  20   2.0000      -0.748105       -20.3570
  21   2.0000      -0.745148       -20.2765
  22   2.0000      -0.744569       -20.2607
  23   2.0000      -0.743283       -20.2258
  24   2.0000      -0.635459       -17.2917
  25   2.0000      -0.619104       -16.8467
  26   2.0000      -0.593242       -16.1429
  27   2.0000      -0.366115        -9.9625
  28   2.0000      -0.187014        -5.0889
  29   2.0000      -0.174693        -4.7536
  30   2.0000      -0.168762        -4.5923
  31   2.0000      -0.150528        -4.0961
  32   2.0000      -0.148373        -4.0374
  33   2.0000      -0.141056        -3.8383
  34   2.0000      -0.125868        -3.4250
  35   2.0000      -0.120147        -3.2694
  36   2.0000      -0.119742        -3.2583
  37   0.0000       0.089389         2.4324
  38   0.0000       0.103963         2.8290
  39   0.0000       0.110314         3.0018
  40   0.0000       0.225022         6.1232
  41   0.0000       0.232315         6.3216

MULLIKEN ATOMIC CHARGES
-----------------------
   0 Pb:    0.722044
   1 Cl:   -0.538818
   2 Cl:   -0.560810
   3 Cl:   -0.622416
Sum of atomic charges:   -1.0000000

LOEWDIN ATOMIC CHARGES
----------------------
   0 Pb:   -0.015856
   1 Cl:   -0.248404
   2 Cl:   -0.297848
   3 Cl:   -0.437892

  Mayer bond orders larger than 0.1
B(  0-Pb,  1-Cl) :   0.7705 B(  0-Pb,  2-Cl) :   0.7361 B(  0-Pb,  3-Cl) :   0.6382

FINAL SINGLE POINT ENERGY     -1574.920949375947

DIPOLE MOMENT
-------------
                                X             Y             Z
Electronic contribution:    -41.70384      53.55561     -41.15604
Nuclear contribution   :     40.30322     -51.10203      39.66816
                        -----------------------------------------
Total Dipole Moment    :     -1.40061       2.45358      -1.48788
                        -----------------------------------------
Magnitude (a.u.)       :      3.19305
Magnitude (Debye)      :      8.11608

                             ****ORCA TERMINATED NORMALLY****
TOTAL RUN TIME: 0 days 0 hours 8 minutes 41 seconds 681 msec
