                         Program Version 3.0.3 - RELEASE   -
|  1> ! PW6B95 def2-TZVP GCP(DFT/TZ) ECP{def2-TZVP} Grid7 MORead
|  2> %pal nprocs 2 end
|  3> %method
|  4>  RunTyp Gradient
|  5>  end
|  6> %maxcore 2000
|  7> %moinp "previous.gbw"
|  8> *xyz 0 1
|  9> Pb 0.464136 0.319578 0.328628
| 10> Cl 3.041740 0.647210 0.680399
| 11> Cl 0.145745 2.885157 0.125650
| 12> Cl -0.007973 0.472619 2.898531
| 13> Cs 2.920254 3.430263 2.476807
| 14> *
| 15>
| 16>                          ****END OF INPUT****

CARTESIAN COORDINATES (ANGSTROEM)
---------------------------------
  Pb     0.464136    0.319578    0.328628
  Cl     3.041740    0.647210    0.680399
  Cl     0.145745    2.885157    0.125650
  Cl    -0.007973    0.472619    2.898531
  Cs     2.920254    3.430263    2.476807

 Total Charge           Charge          ....    0
 Multiplicity           Mult            ....    1
 Number of Electrons    NEL             ....   82
 Basis Dimension        Dim             ....  190

ORBITAL ENERGIES
----------------

  NO   OCC          E(Eh)            E(eV)
   0   2.0000    -101.859808     -2771.7463
   1   2.0000    -101.853972     -2771.5875
   2   2.0000    -101.843732     -2771.3088
   3   2.0000      -9.500586      -258.5241
   4   2.0000      -9.494417      -258.3562
   5   2.0000      -9.483741      -258.0657
   6   2.0000      -7.230061      -196.7400
   7   2.0000      -7.227753      -196.6772
   8   2.0000      -7.227424      -196.6682
   9   2.0000      -7.224061      -196.5767
  10   2.0000      -7.221573      -196.5090
  11   2.0000      -7.221143      -196.4973
  12   2.0000      -7.213541      -196.2904
  13   2.0000      -7.210811      -196.2162
  14   2.0000      -7.210470      -196.2069
  15   2.0000      -5.553284      -151.1125
  16   2.0000      -3.377469       -91.9056
  17   2.0000      -3.376883       -91.8897
  18   2.0000      -3.375396       -91.8492
  19   2.0000      -1.097294       -29.8589
  20   2.0000      -0.873965       -23.7818
  21   2.0000      -0.872308       -23.7367
  22   2.0000      -0.867443       -23.6043
  23   2.0000      -0.866747       -23.5854
  24   2.0000      -0.865643       -23.5554
  25   2.0000      -0.776147       -21.1200
  26   2.0000      -0.758094       -20.6288
  27   2.0000      -0.745815       -20.2947
  28   2.0000      -0.568372       -15.4662
  29   2.0000      -0.567289       -15.4367
  30   2.0000      -0.564820       -15.3695
  31   2.0000      -0.494080       -13.4446
  32   2.0000      -0.324222        -8.8225
  33   2.0000      -0.317191        -8.6312
  34   2.0000      -0.311193        -8.4680
  35   2.0000      -0.293644        -7.9905
  36   2.0000      -0.292441        -7.9577
  37   2.0000      -0.279641        -7.6094
  38   2.0000      -0.271335        -7.3834
  39   2.0000      -0.266381        -7.2486
  40   2.0000      -0.261922        -7.1273
  41   0.0000      -0.049213        -1.3392
  42   0.0000      -0.018125        -0.4932
  43   0.0000      -0.015374        -0.4183
  44   0.0000      -0.010689        -0.2909
  45   0.0000      -0.006270        -0.1706

MULLIKEN ATOMIC CHARGES
-----------------------
   0 Pb:    0.780841
   1 Cl:   -0.547558
   2 Cl:   -0.521068
   3 Cl:   -0.513303
   4 Cs:    0.801088
Sum of atomic charges:   -0.0000000

LOEWDIN ATOMIC CHARGES
----------------------
   0 Pb:    0.114909
   1 Cl:   -0.159789
   2 Cl:   -0.164887
   3 Cl:   -0.203893
   4 Cs:    0.413660

  Mayer bond orders larger than 0.1
B(  0-Pb,  1-Cl) :   0.6034 B(  0-Pb,  2-Cl) :   0.6791 B(  0-Pb,  3-Cl) :   0.7298
B(  1-Cl,  4-Cs) :   0.1669 B(  2-Cl,  4-Cs) :   0.1298

FINAL SINGLE POINT ENERGY     -1595.078009179230

DIPOLE MOMENT
-------------
                                X             Y             Z
Electronic contribution:     38.22915      32.33062       9.62259
Nuclear contribution   :    -36.10316     -30.20788      -8.67116
                        -----------------------------------------
Total Dipole Moment    :      2.12599       2.12274       0.95144
                        -----------------------------------------
Magnitude (a.u.)       :      3.15137
Magnitude (Debye)      :      8.01014

                             ****ORCA TERMINATED NORMALLY****
TOTAL RUN TIME: 0 days 0 hours 12 minutes 57 seconds 758 msec
