                         Program Version 3.0.3 - RELEASE   -
|  1> ! PW6B95 def2-TZVP GCP(DFT/TZ) ECP{def2-TZVP} Grid7 MORead
|  2> %pal nprocs 2 end
|  3> %method
|  4>  RunTyp Gradient
|  5>  end
|  6> %maxcore 2000
|  7> %moinp "previous.gbw"
|  8> *xyz 0 1
|  9> Pb 0.048063 2.821629 1.121469
| 10> Cl 0.199256 0.905817 -0.357036
| 11> Cl 2.553972 3.671112 1.051589
| 12> Cl 0.619137 1.607165 3.311411
| 13> Cs 3.128888 0.414978 1.508001
| 14> *
| 15>
| 16>                          ****END OF INPUT****

CARTESIAN COORDINATES (ANGSTROEM)
---------------------------------
  Pb     0.048063    2.821629    1.121469
  Cl     0.199256    0.905817   -0.357036
  Cl     2.553972    3.671112    1.051589
  Cl     0.619137    1.607165    3.311411
  Cs     3.128888    0.414978    1.508001

 Total Charge           Charge          ....    0
 Multiplicity           Mult            ....    1
 Number of Electrons    NEL             ....   82
 Basis Dimension        Dim             ....  190

ORBITAL ENERGIES
----------------

  NO   OCC          E(Eh)            E(eV)
   0   2.0000    -101.879921     -2772.2936
   1   2.0000    -101.863974     -2771.8597
   2   2.0000    -101.857116     -2771.6730
   3   2.0000      -9.521699      -259.0986
   4   2.0000      -9.504940      -258.6426
   5   2.0000      -9.497593      -258.4426
   6   2.0000      -7.251179      -197.3146
   7   2.0000      -7.248691      -197.2469
   8   2.0000      -7.248375      -197.2383
   9   2.0000      -7.234478      -196.8601
  10   2.0000      -7.232092      -196.7952
  11   2.0000      -7.231640      -196.7829
  12   2.0000      -7.227116      -196.6598
  13   2.0000      -7.224812      -196.5971
  14   2.0000      -7.224368      -196.5851
  15   2.0000      -5.554012      -151.1324
  16   2.0000      -3.378384       -91.9305
  17   2.0000      -3.377219       -91.8988
  18   2.0000      -3.376838       -91.8884
  19   2.0000      -1.083779       -29.4911
  20   2.0000      -0.883683       -24.0462
  21   2.0000      -0.875706       -23.8292
  22   2.0000      -0.869072       -23.6486
  23   2.0000      -0.868677       -23.6379
  24   2.0000      -0.868379       -23.6298
  25   2.0000      -0.796937       -21.6858
  26   2.0000      -0.771327       -20.9889
  27   2.0000      -0.761007       -20.7080
  28   2.0000      -0.555776       -15.1234
  29   2.0000      -0.554363       -15.0850
  30   2.0000      -0.553877       -15.0718
  31   2.0000      -0.504894       -13.7389
  32   2.0000      -0.345114        -9.3910
  33   2.0000      -0.334061        -9.0903
  34   2.0000      -0.327518        -8.9122
  35   2.0000      -0.308928        -8.4064
  36   2.0000      -0.306263        -8.3338
  37   2.0000      -0.296003        -8.0546
  38   2.0000      -0.291453        -7.9308
  39   2.0000      -0.280358        -7.6289
  40   2.0000      -0.263423        -7.1681
  41   0.0000      -0.040458        -1.1009
  42   0.0000      -0.021365        -0.5814
  43   0.0000      -0.014472        -0.3938
  44   0.0000      -0.005006        -0.1362
  45   0.0000      -0.001238        -0.0337

MULLIKEN ATOMIC CHARGES
-----------------------
   0 Pb:    0.721696
   1 Cl:   -0.471271
   2 Cl:   -0.525160
   3 Cl:   -0.507594
   4 Cs:    0.782330
Sum of atomic charges:   -0.0000000

LOEWDIN ATOMIC CHARGES
----------------------
   0 Pb:    0.029427
   1 Cl:   -0.044030
   2 Cl:   -0.167488
   3 Cl:   -0.121239
   4 Cs:    0.303329

  Mayer bond orders larger than 0.1
B(  0-Pb,  1-Cl) :   0.7610 B(  0-Pb,  2-Cl) :   0.6356 B(  0-Pb,  3-Cl) :   0.6705
B(  1-Cl,  4-Cs) :   0.1139 B(  2-Cl,  4-Cs) :   0.1606 B(  3-Cl,  4-Cs) :   0.1506

FINAL SINGLE POINT ENERGY     -1595.081250763901

DIPOLE MOMENT
-------------
                                X             Y             Z
Electronic contribution:     27.39415     -26.70679      -1.56068
Nuclear contribution   :    -25.73252      24.87751       1.45978
                        -----------------------------------------
Total Dipole Moment    :      1.66163      -1.82928      -0.10090
                        -----------------------------------------
Magnitude (a.u.)       :      2.47335
Magnitude (Debye)      :      6.28677

                             ****ORCA TERMINATED NORMALLY****
TOTAL RUN TIME: 0 days 0 hours 13 minutes 12 seconds 134 msec
